 Q-Chem 5.0, Q-Chem, Inc., Pleasanton, CA (2017)
 Q-Chem 5.0.2 for Intel X86 EM64T Linux

User input:
--------------------------------------------------------------
$rem
SCF_PRINT                     1
BASIS                         6-311++g**
SCF_SAVE_MATRICES             1
SCF_CONVERGENCE               5
SCF_FINAL_PRINT               1
METHOD                        hf
JOBTYPE                       sp
$end

$molecule
0 1
C    2.5118997    1.6250148    0.0
C    2.7130094    0.9578537    -1.2082918
C    3.1177821    -0.3767436    -1.2083647
C    3.3213848    -1.0437307    0.0
C    3.1177821    -0.3767436    1.2083647
C    2.7130094    0.9578537    1.2082918
H    2.2024038    2.6611358    0.0
H    2.551176    1.4736908    -2.14459
H    3.2702999    -0.8951406    -2.1448379
H    3.6368139    -2.0781521    0.0
H    3.2702999    -0.8951406    2.1448379
H    2.551176    1.4736908    2.14459
H    0.8065245    -0.4358866    0.0
N    -0.1442408    -0.7686927    0.0
C    -0.5161122    -2.089322    0.0
C    -1.8898755    -2.1814495    0.0
C    -2.3932317    -0.847083    0.0
C    -1.2640653    0.0195887    0.0
C    -1.3896004    1.4117668    0.0
C    -2.6726501    1.936645    0.0
C    -3.8054511    1.097479    0.0
C    -3.6798167    -0.2817209    0.0
H    0.2310024    -2.8653173    0.0
H    -2.4585759    -3.0956052    0.0
H    -0.5188733    2.053952    0.0
H    -2.807757    3.0097859    0.0
H    -4.7905991    1.5439372    0.0
H    -4.5580187    -0.9142916    0.0
$end

--------------------------------------------------------------

             Standard Nuclear Orientation (Angstroms)
    I     Atom           X                Y                Z
 ----------------------------------------------------------------
    1      C      -2.4860661704    -1.6348956891    -0.0000000000
    2      C      -2.6911380319    -0.9689418045    -1.2082918000
    3      C      -3.1038366450     0.3632258826    -1.2083647000
    4      C      -3.3114004281     1.0289909515     0.0000000000
    5      C      -3.1038366450     0.3632258826     1.2083647000
    6      C      -2.6911380319    -0.9689418045     1.2082918000
    7      H      -2.1704168660    -2.6691586902    -0.0000000000
    8      H      -2.5262412711    -1.4838078273    -2.1445900000
    9      H      -3.2594331868     0.8807071336    -2.1448379000
   10      H      -3.6329727250     2.0615191147     0.0000000000
   11      H      -3.2594331868     0.8807071336     2.1448379000
   12      H      -2.5262412711    -1.4838078273     2.1445900000
   13      H      -0.7929714329     0.4361063299     0.0000000000
   14      N       0.1557988165     0.7745580544     0.0000000000
   15      C       0.5198136108     2.0973744875     0.0000000000
   16      C       1.8930050200     2.1976662330     0.0000000000
   17      C       2.4042840195     0.8663153383     0.0000000000
   18      C       1.2802892061    -0.0070529998    -0.0000000000
   19      C       1.4140974220    -1.3984603035    -0.0000000000
   20      C       2.7002444164    -1.9157025739    -0.0000000000
   21      C       3.8280372640    -1.0698178453    -0.0000000000
   22      C       3.6942068944     0.3086108974    -0.0000000000
   23      H      -0.2319004328     2.8689151072     0.0000000000
   24      H       2.4562614824     3.1151862309     0.0000000000
   25      H       0.5472029585    -2.0458099021    -0.0000000000
   26      H       2.8417278541    -2.9880214176    -0.0000000000
   27      H       4.8158216801    -1.5104122774    -0.0000000000
   28      H       4.5686332760     0.9463905979    -0.0000000000
 ----------------------------------------------------------------

    7    -592.3074788533      7.86e-06  Convergence criterion met
 Total energy in the final basis set =     -592.3074788533

             Orbital Energies (a.u.) and Symmetries
 --------------------------------------------------------------

 Alpha MOs, Restricted
 -- Occupied --
-15.590 -11.264 -11.257 -11.256 -11.256 -11.255 -11.254 -11.254
  1 A'    2 A'    3 A'    4 A'    5 A'    1 A"    6 A'    2 A"
-11.254 -11.225 -11.225 -11.223 -11.220 -11.216 -11.210  -1.291
  7 A'    8 A'    9 A'   10 A'   11 A'   12 A'   13 A'   14 A'
 -1.172  -1.124  -1.050  -1.035  -1.035  -0.991  -0.968  -0.843
 15 A'   16 A'   17 A'   18 A'    3 A"   19 A'   20 A'   21 A'
 -0.843  -0.837  -0.800  -0.783  -0.730  -0.722  -0.662  -0.657
  4 A"   22 A'   23 A'   24 A'   25 A'   26 A'   27 A'   28 A'
 -0.643  -0.638  -0.608  -0.607  -0.597  -0.591  -0.574  -0.568
 29 A'    5 A"   30 A'    6 A"   31 A'   32 A'    7 A"   33 A'
 -0.545  -0.519  -0.513  -0.513  -0.503  -0.475  -0.457  -0.379
 34 A'   35 A'   36 A'    8 A"   37 A'   38 A'    9 A"   10 A"
 -0.358  -0.356  -0.292  -0.274
 39 A'   11 A"   12 A"   13 A"

 Beta MOs, Restricted
 -- Occupied --
-15.590 -11.264 -11.257 -11.256 -11.256 -11.255 -11.254 -11.254
  1 A'    2 A'    3 A'    4 A'    5 A'    1 A"    6 A'    2 A"
-11.254 -11.225 -11.225 -11.223 -11.220 -11.216 -11.210  -1.291
  7 A'    8 A'    9 A'   10 A'   11 A'   12 A'   13 A'   14 A'
 -1.172  -1.124  -1.050  -1.035  -1.035  -0.991  -0.968  -0.843
 15 A'   16 A'   17 A'   18 A'    3 A"   19 A'   20 A'   21 A'
 -0.843  -0.837  -0.800  -0.783  -0.730  -0.722  -0.662  -0.657
  4 A"   22 A'   23 A'   24 A'   25 A'   26 A'   27 A'   28 A'
 -0.643  -0.638  -0.608  -0.607  -0.597  -0.591  -0.574  -0.568
 29 A'    5 A"   30 A'    6 A"   31 A'   32 A'    7 A"   33 A'
 -0.545  -0.519  -0.513  -0.513  -0.503  -0.475  -0.457  -0.379
 34 A'   35 A'   36 A'    8 A"   37 A'   38 A'    9 A"   10 A"
 -0.358  -0.356  -0.292  -0.274
 39 A'   11 A"   12 A"   13 A"

          Ground-State Mulliken Net Atomic Charges

     Atom                 Charge (a.u.)
  ----------------------------------------
      1 C                    -0.144846
      2 C                    -0.258412
      3 C                    -0.270576
      4 C                    -0.202519
      5 C                    -0.270576
      6 C                    -0.258412
      7 H                     0.210069
      8 H                     0.210644
      9 H                     0.210453
     10 H                     0.204102
     11 H                     0.210453
     12 H                     0.210644
     13 H                     0.681568
     14 N                     0.288183
     15 C                    -0.243004
     16 C                    -0.110847
     17 C                     0.271224
     18 C                    -0.367687
     19 C                    -0.128329
     20 C                    -0.135636
     21 C                    -0.396143
     22 C                    -0.817496
     23 H                     0.164404
     24 H                     0.211232
     25 H                     0.162299
     26 H                     0.201801
     27 H                     0.182278
     28 H                     0.185131
  ----------------------------------------
  Sum of atomic charges =    -0.000000

                    Cartesian Multipole Moments
 -----------------------------------------------------------------
    Charge (ESU x 10^10)
                -0.0000
    Dipole Moment (Debye)
         X      -3.0872      Y       0.0743      Z       0.0000
       Tot       3.0881
    Quadrupole Moments (Debye-Ang)
        XX     -89.9945     XY      -2.5388     YY     -81.0281
        XZ      -0.0000     YZ      -0.0000     ZZ     -91.0964

 Total job time:  810.35s(wall), 808.34s(cpu)
        *  Thank you very much for using Q-Chem.  Have a nice day.  *
