 Q-Chem 5.0, Q-Chem, Inc., Pleasanton, CA (2017)
 Q-Chem 5.0.2 for Intel X86 EM64T Linux

User input:
--------------------------------------------------------------
$rem
SCF_PRINT                     1
BASIS                         6-311++g**
SCF_SAVE_MATRICES             1
SCF_CONVERGENCE               5
SCF_FINAL_PRINT               1
METHOD                        hf
JOBTYPE                       sp
$end

$molecule
0 1
C    -0.223913    0.002109    0.127404
C    -0.229554    0.001265    1.520572
C    0.966066    -0.0021    2.235729
C    2.176417    -0.004636    1.545888
C    2.194095    -0.003818    0.152623
C    0.992179    -0.000449    -0.552274
Br    -1.869237    0.004669    2.446186
H    0.946534    -0.002734    3.316252
H    3.10476    -0.007248    2.100804
H    3.135463    -0.005789    -0.378706
H    0.99688    0.000205    -1.633817
H    -1.159029    0.004715    -0.414303
N    -4.443847216    0.003241324    3.917575142
C    -5.269667216    -1.075483676    3.409420142
C    -4.151048216    -0.203416676    5.323037142
C    -5.102631216    1.280426324    3.720892142
H    -5.062163216    -0.220699676    5.941925142
H    -3.629556216    -1.150340676    5.453179142
H    -3.505905216    0.595924324    5.684173142
H    -6.064049216    1.341711324    4.255123142
H    -4.459570216    2.083221324    4.077923142
H    -5.289110216    1.436927324    2.659644142
H    -6.239899216    -1.138941676    3.927201142
H    -5.456675216    -0.924671676    2.347429142
H    -4.750743216    -2.024428676    3.534754142
$end

--------------------------------------------------------------

             Standard Nuclear Orientation (Angstroms)
    I     Atom           X                Y                Z
 ----------------------------------------------------------------
    1      C       2.3737317139    -1.2107946293    -0.0003486089
    2      C       1.6805530507    -0.0023028632    -0.0011241449
    3      C       2.3667636994     1.2101666438    -0.0002979311
    4      C       3.7599006854     1.2083496949     0.0013196894
    5      C       4.4635927531     0.0057203258     0.0021041907
    6      C       3.7668392927    -1.2009391635     0.0012709600
    7      Br     -0.2023437894    -0.0076013664    -0.0032735738
    8      H       1.8159652729     2.1399690891    -0.0008984294
    9      H       4.2928939248     2.1494538925     0.0019608729
   10      H       5.5445538315     0.0088324459     0.0033548272
   11      H       4.3052469374    -2.1389554921     0.0018737784
   12      H       1.8283240347    -2.1437604653    -0.0009895749
   13      N      -3.1677342338    -0.0002582596     0.0001029729
   14      C      -3.6339760746    -0.8481972805     1.0805962699
   15      C      -3.6073743491     1.3667158450     0.2047015632
   16      C      -3.6441846905    -0.4989204005    -1.2759115713
   17      H      -4.7052767520     1.4547102163     0.2225595042
   18      H      -3.2176360645     1.7391297012     1.1507289927
   19      H      -3.2254031342     1.9980503597    -0.5959790577
   20      H      -4.7440509940    -0.5095167790    -1.3364509339
   21      H      -3.2619979208     0.1278105414    -2.0800384246
   22      H      -3.2821263892    -1.5140088454    -1.4309068403
   23      H      -4.7332962348    -0.8772358771     1.1448314698
   24      H      -3.2720068763    -1.8641832816     0.9312916129
   25      H      -3.2440938551    -0.4812289002     2.0286539713
 ----------------------------------------------------------------

    7   -2975.8563368374      8.28e-06  Convergence criterion met
 Total energy in the final basis set =    -2975.8563368374

                    Orbital Energies (a.u.)
 --------------------------------------------------------------

 Alpha MOs
 -- Occupied --
******* -65.145 -58.506 -58.504 -58.504 -15.547 -11.287 -11.245
-11.245 -11.244 -11.244 -11.242 -11.240 -11.239 -11.239  -9.825
 -7.439  -7.430  -7.430  -3.179  -3.175  -3.175  -3.164  -3.164
 -1.231  -1.169  -1.065  -1.026  -0.965  -0.952  -0.952  -0.839
 -0.811  -0.808  -0.705  -0.650  -0.638  -0.636  -0.631  -0.631
 -0.598  -0.567  -0.545  -0.545  -0.524  -0.517  -0.508  -0.501
 -0.501  -0.486  -0.428  -0.403  -0.357  -0.345  -0.323

          Ground-State Mulliken Net Atomic Charges

     Atom                 Charge (a.u.)
  ----------------------------------------
      1 C                    -0.279415
      2 C                     0.619432
      3 C                    -0.156577
      4 C                    -0.245123
      5 C                    -0.336761
      6 C                    -0.271394
      7 Br                   -0.449666
      8 H                     0.230617
      9 H                     0.207830
     10 H                     0.183824
     11 H                     0.208226
     12 H                     0.228785
     13 N                     0.000732
     14 C                    -0.338215
     15 C                    -0.357361
     16 C                    -0.341187
     17 H                     0.108535
     18 H                     0.130794
     19 H                     0.130412
     20 H                     0.107239
     21 H                     0.128948
     22 H                     0.127638
     23 H                     0.107817
     24 H                     0.126869
     25 H                     0.128000
  ----------------------------------------
  Sum of atomic charges =     0.000000

                    Cartesian Multipole Moments
 -----------------------------------------------------------------
    Charge (ESU x 10^10)
                 0.0000
    Dipole Moment (Debye)
         X       0.1076      Y       0.0163      Z       0.0071
       Tot       0.1091
    Quadrupole Moments (Debye-Ang)
        XX     -68.4673     XY      -0.0071     YY     -75.2796
        XZ       0.0074     YZ      -0.0002     ZZ     -85.1937

 Total job time:  963.34s(wall), 914.87s(cpu)
        *  Thank you very much for using Q-Chem.  Have a nice day.  *
