 Q-Chem 5.0, Q-Chem, Inc., Pleasanton, CA (2017)
 Q-Chem 5.0.2 for Intel X86 EM64T Linux

User input:
--------------------------------------------------------------
$rem
SCF_PRINT                     1
BASIS                         6-311++g**
SCF_SAVE_MATRICES             1
SCF_CONVERGENCE               5
SCF_FINAL_PRINT               1
METHOD                        hf
JOBTYPE                       sp
$end

$molecule
0 1
N    0.9350155    -0.0279801    -0.3788916
C    1.6739638    -0.0357766    0.7424316
C    3.0747955    -0.009448    0.5994562
C    3.5646109    0.0195446    -0.7059872
N    2.853151    0.0258031    -1.8409596
C    1.549076    0.0012569    -1.5808009
N    4.0885824    -0.0054429    1.5289786
C    5.1829921    0.0253971    0.7872176
N    4.9294871    0.0412404    -0.5567274
N    1.0716177    -0.0765366    1.939139
H    0.8794435    0.005026    -2.4315709
H    6.1882591    0.0375542    1.1738824
H    5.6035368    0.0648755    -1.3036811
H    0.0586915    -0.0423765    2.0039181
H    1.6443796    -0.0347395    2.7619159
$end

--------------------------------------------------------------

             Standard Nuclear Orientation (Angstroms)
    I     Atom           X                Y                Z
 ----------------------------------------------------------------
    1      N       1.9299812303    -0.5353221928     0.0015415664
    2      C       1.2317666120     0.6118312586    -0.0009882494
    3      C      -0.1735209723     0.5189260511    -0.0007884155
    4      C      -0.7100400433    -0.7683538088    -0.0009154901
    5      N      -0.0397520653    -1.9281342359    -0.0006083942
    6      C       1.2730054680    -1.7146837957     0.0011913424
    7      N      -1.1534081030     1.4841258530     0.0007494267
    8      C      -2.2739617659     0.7818065462     0.0011471410
    9      N      -2.0688914213    -0.5704687936    -0.0000847586
   10      N       1.8770542284     1.7865923196    -0.0124400896
   11      H       1.9116840009    -2.5889369412     0.0028202244
   12      H      -3.2648496382     1.2041322528     0.0023412587
   13      H      -2.7694764118    -1.2929797245     0.0001831916
   14      H       2.8908895713     1.8143821213     0.0399846691
   15      H       1.3333696027     2.6286941324     0.0326884318
 ----------------------------------------------------------------

    9    -464.6332845529      3.39e-06  Convergence criterion met
 Total energy in the final basis set =     -464.6332845529

                    Orbital Energies (a.u.)
 --------------------------------------------------------------

 Alpha MOs
 -- Occupied --
-15.636 -15.588 -15.572 -15.560 -15.550 -11.342 -11.328 -11.321
-11.313 -11.256  -1.375  -1.304  -1.254  -1.192  -1.155  -1.038
 -0.900  -0.880  -0.852  -0.785  -0.745  -0.704  -0.681  -0.641
 -0.640  -0.617  -0.595  -0.561  -0.500  -0.498  -0.452  -0.426
 -0.410  -0.373  -0.310

          Ground-State Mulliken Net Atomic Charges

     Atom                 Charge (a.u.)
  ----------------------------------------
      1 N                    -0.388232
      2 C                     0.139755
      3 C                     0.050797
      4 C                    -0.163574
      5 N                    -0.295893
      6 C                     0.138574
      7 N                    -0.332971
      8 C                     0.268289
      9 N                    -0.408761
     10 N                    -0.520989
     11 H                     0.244795
     12 H                     0.239782
     13 H                     0.361247
     14 H                     0.353599
     15 H                     0.313582
  ----------------------------------------
  Sum of atomic charges =     0.000000

                    Cartesian Multipole Moments
 -----------------------------------------------------------------
    Charge (ESU x 10^10)
                 0.0000
    Dipole Moment (Debye)
         X      -2.3164      Y       1.0922      Z       0.1581
       Tot       2.5659
    Quadrupole Moments (Debye-Ang)
        XX     -43.5800     XY       6.6102     YY     -57.9839
        XZ       0.3772     YZ       0.3926     ZZ     -60.6513

 Total job time:  391.99s(wall), 390.11s(cpu)
        *  Thank you very much for using Q-Chem.  Have a nice day.  *
