 Q-Chem 5.0, Q-Chem, Inc., Pleasanton, CA (2017)
 Q-Chem 5.0.2 for Intel X86 EM64T Linux

User input:
--------------------------------------------------------------
$rem
SCF_PRINT                     1
BASIS                         6-311++g**
SCF_SAVE_MATRICES             1
SCF_CONVERGENCE               5
SCF_FINAL_PRINT               1
METHOD                        hf
JOBTYPE                       sp
$end

$molecule
0 1
C    -1.2471894    -1.1718212    -0.6961388
C    -1.2471894    -1.1718212    0.6961388
N    -0.258951    -1.7235771    1.4144796
C    0.7315327    -2.2652221    0.6967288
C    0.7315327    -2.2652221    -0.6967288
N    -0.258951    -1.7235771    -1.4144796
H    -2.0634363    -0.7223199    -1.2472797
H    -2.0634363    -0.7223199    1.2472797
H    1.5488004    -2.7128282    1.2475604
H    1.5488004    -2.7128282    -1.2475604
$end

--------------------------------------------------------------

             Standard Nuclear Orientation (Angstroms)
    I     Atom           X                Y                Z
 ----------------------------------------------------------------
    1      C       1.1308469374     0.0020260541     0.6961388000
    2      C       1.1308469374     0.0020260541    -0.6961388000
    3      N      -0.0009746500    -0.0034147803    -1.4144796000
    4      C      -1.1298754658     0.0010812240    -0.6967288000
    5      C      -1.1298754658     0.0010812240     0.6967288000
    6      N      -0.0009746500    -0.0034147803     1.4144796000
    7      H       2.0626782000     0.0010677248     1.2472797000
    8      H       2.0626782000     0.0010677248    -1.2472797000
    9      H      -2.0616844789     0.0041920683    -1.2475604000
   10      H      -2.0616844789     0.0041920683     1.2475604000
 ----------------------------------------------------------------

    8    -262.7420171237      2.79e-06  Convergence criterion met
 Total energy in the final basis set =     -262.7420171237

             Orbital Energies (a.u.) and Symmetries
 --------------------------------------------------------------

 Alpha MOs, Restricted
 -- Occupied --
-15.599 -15.599 -11.290 -11.290 -11.289 -11.289  -1.312  -1.224
  1 A"    1 A'    2 A'    3 A'    2 A"    3 A"    4 A'    4 A"
 -1.059  -0.908  -0.892  -0.731  -0.708  -0.681  -0.615  -0.577
  5 A'    6 A'    5 A"    7 A'    8 A'    6 A"    9 A'   10 A'
 -0.554  -0.504  -0.438  -0.417  -0.363
  7 A"    8 A"    9 A"   11 A'   12 A'

 Beta MOs, Restricted
 -- Occupied --
-15.599 -15.599 -11.290 -11.290 -11.289 -11.289  -1.312  -1.224
  1 A"    1 A'    2 A'    3 A'    2 A"    3 A"    4 A'    4 A"
 -1.059  -0.908  -0.892  -0.731  -0.708  -0.681  -0.615  -0.577
  5 A'    6 A'    5 A"    7 A'    8 A'    6 A"    9 A'   10 A'
 -0.554  -0.504  -0.438  -0.417  -0.363
  7 A"    8 A"    9 A"   11 A'   12 A'

          Ground-State Mulliken Net Atomic Charges

     Atom                 Charge (a.u.)
  ----------------------------------------
      1 C                    -0.148608
      2 C                    -0.148608
      3 N                    -0.116883
      4 C                    -0.147422
      5 C                    -0.147422
      6 N                    -0.116883
      7 H                     0.206582
      8 H                     0.206582
      9 H                     0.206331
     10 H                     0.206331
  ----------------------------------------
  Sum of atomic charges =     0.000000

                    Cartesian Multipole Moments
 -----------------------------------------------------------------
    Charge (ESU x 10^10)
                -0.0000
    Dipole Moment (Debye)
         X      -0.0045      Y       0.0174      Z      -0.0000
       Tot       0.0180
    Quadrupole Moments (Debye-Ang)
        XX     -26.4919     XY      -0.0142     YY     -37.0695
        XZ      -0.0000     YZ      -0.0000     ZZ     -42.2621

 Total job time:  48.24s(wall), 48.02s(cpu)
        *  Thank you very much for using Q-Chem.  Have a nice day.  *
