 Q-Chem 5.0, Q-Chem, Inc., Pleasanton, CA (2017)
 Q-Chem 5.0.2 for Intel X86 EM64T Linux

User input:
--------------------------------------------------------------
$rem
SCF_PRINT                     1
BASIS                         6-311++g**
SCF_SAVE_MATRICES             1
SCF_CONVERGENCE               5
SCF_FINAL_PRINT               1
METHOD                        hf
JOBTYPE                       sp
$end

$molecule
0 1
C    2.3411e-05    0.000105759    2.053285735
F    -1.082526715    0.625339904    1.589816968
F    1.082627682    0.625237764    1.589922249
F    -2.386e-05    -1.249820225    1.589264753
H    -4.196e-05    -0.000280062    3.138092074
C    -1.0064e-05    -8.2573e-05    -1.743091435
H    -3.612e-06    0.000105999    -2.828619365
H    -0.885658535    -0.511600583    -1.379811314
H    0.885727513    -0.511445556    -1.379800941
H    -0.00010144    1.022550877    -1.379525404
$end

--------------------------------------------------------------

             Standard Nuclear Orientation (Angstroms)
    I     Atom           X                Y                Z
 ----------------------------------------------------------------
    1      C      -1.1225462412    -0.0002343452    -0.0000713775
    2      F      -0.6591665598     0.8420503224    -0.9239066545
    3      F      -0.6593243288     0.3790926941     1.1911734371
    4      F      -0.6582947054    -1.2211741165    -0.2672923082
    5      H      -2.2073524887    -0.0007871254    -0.0002861931
    6      C       2.6738308987     0.0002532405     0.0000953000
    7      H       3.7593587749     0.0006260532     0.0002104371
    8      H       2.3106666160    -0.3101731391    -0.9744525447
    9      H       2.3106132568    -0.6887013454     0.7560170301
   10      H       2.3100762418     0.9992020848     0.2185974655
 ----------------------------------------------------------------

    7    -377.0817254635      6.64e-06  Convergence criterion met
 Total energy in the final basis set =     -377.0817254635

                    Orbital Energies (a.u.)
 --------------------------------------------------------------

 Alpha MOs
 -- Occupied --
-26.350 -26.350 -26.350 -11.517 -11.197  -1.744  -1.648  -1.648
 -0.998  -0.937  -0.856  -0.834  -0.834  -0.718  -0.718  -0.674
 -0.674  -0.657  -0.604  -0.538  -0.538  -0.538

          Ground-State Mulliken Net Atomic Charges

     Atom                 Charge (a.u.)
  ----------------------------------------
      1 C                     0.399246
      2 F                    -0.196895
      3 F                    -0.196860
      4 F                    -0.196872
      5 H                     0.197687
      6 C                    -0.534111
      7 H                     0.113653
      8 H                     0.138049
      9 H                     0.138048
     10 H                     0.138056
  ----------------------------------------
  Sum of atomic charges =    -0.000000

                    Cartesian Multipole Moments
 -----------------------------------------------------------------
    Charge (ESU x 10^10)
                 0.0000
    Dipole Moment (Debye)
         X      -2.0089      Y      -0.0009      Z      -0.0001
       Tot       2.0089
    Quadrupole Moments (Debye-Ang)
        XX     -23.8744     XY       0.0030     YY     -31.1126
        XZ       0.0009     YZ       0.0001     ZZ     -31.1125

 Total job time:  42.74s(wall), 37.08s(cpu)
        *  Thank you very much for using Q-Chem.  Have a nice day.  *
