 Q-Chem 5.0, Q-Chem, Inc., Pleasanton, CA (2017)
 Q-Chem 5.0.2 for Intel X86 EM64T Linux

User input:
--------------------------------------------------------------
$rem
SCF_PRINT                     1
BASIS                         6-311++g**
SCF_SAVE_MATRICES             1
SCF_CONVERGENCE               5
SCF_FINAL_PRINT               1
METHOD                        hf
JOBTYPE                       sp
$end

$molecule
0 1
C    -0.08221802    -0.061558741    -0.10680848
I    1.901225752    0.399212623    0.532188762
F    -0.250022308    -1.377895721    -0.214057562
F    -0.977880861    0.400686285    0.761715653
F    -0.335197352    0.485382328    -1.293788995
O    4.809254249    0.837030654    1.16946155
C    5.556540758    0.235129869    0.427979466
H    6.648084457    0.296357069    0.53669294
H    5.177061701    -0.398984543    -0.386517855
$end

--------------------------------------------------------------

             Standard Nuclear Orientation (Angstroms)
    I     Atom           X                Y                Z
 ----------------------------------------------------------------
    1      C       1.8175985313    -0.1560164734    -0.0000916434
    2      I      -0.2849472850     0.2100135186     0.0001473248
    3      F       2.1488114174    -1.0064132504    -0.9693836713
    4      F       2.4939139861     0.9736910735    -0.1913370943
    5      F       2.2059884412    -0.6802972094     1.1602310730
    6      O      -3.2896292627     0.3722384178    -0.0003708713
    7      C      -3.8266126425    -0.7150362010    -0.0000310741
    8      H      -4.9205258893    -0.8169616301    -0.0002584010
    9      H      -3.2445738405    -1.6481716740     0.0005606949
 ----------------------------------------------------------------

    9   -7366.9851108849      5.07e-06  Convergence criterion met
 Total energy in the final basis set =    -7366.9851108849

                    Orbital Energies (a.u.)
 --------------------------------------------------------------

 Alpha MOs
 -- Occupied --
*******-180.886-169.693-169.692-169.692 -37.940 -33.129 -33.123
-33.123 -26.357 -26.357 -26.357 -24.313 -24.311 -24.311 -24.306
-24.306 -20.602 -11.548 -11.367  -7.257  -5.492  -5.479  -5.479
 -2.416  -2.409  -2.409  -2.395  -2.395  -1.754  -1.655  -1.655
 -1.430  -1.004  -0.899  -0.894  -0.843  -0.843  -0.767  -0.725
 -0.725  -0.717  -0.680  -0.680  -0.677  -0.663  -0.560  -0.509
 -0.461  -0.396  -0.395

          Ground-State Mulliken Net Atomic Charges

     Atom                 Charge (a.u.)
  ----------------------------------------
      1 C                     0.206942
      2 I                     0.171729
      3 F                    -0.132861
      4 F                    -0.134605
      5 F                    -0.132491
      6 O                    -0.309094
      7 C                     0.106509
      8 H                     0.115692
      9 H                     0.108178
  ----------------------------------------
  Sum of atomic charges =    -0.000000

                    Cartesian Multipole Moments
 -----------------------------------------------------------------
    Charge (ESU x 10^10)
                -0.0000
    Dipole Moment (Debye)
         X      -3.6838      Y      -2.3869      Z       0.0009
       Tot       4.3895
    Quadrupole Moments (Debye-Ang)
        XX     -50.0839     XY       9.9323     YY     -61.2058
        XZ      -0.0032     YZ      -0.0017     ZZ     -62.4616

 Total job time:  153.57s(wall), 148.81s(cpu)
        *  Thank you very much for using Q-Chem.  Have a nice day.  *
