 Q-Chem 5.0, Q-Chem, Inc., Pleasanton, CA (2017)
 Q-Chem 5.0.2 for Intel X86 EM64T Linux

User input:
--------------------------------------------------------------
$rem
SCF_PRINT                     1
BASIS                         6-311++g**
SCF_SAVE_MATRICES             1
SCF_CONVERGENCE               5
SCF_FINAL_PRINT               1
METHOD                        hf
JOBTYPE                       sp
$end

$molecule
0 1
C    -0.471925    -0.471925    -1.859111
C    0.471925    0.471925    -1.859111
H    -0.872422    -0.872422    -0.936125
H    0.872422    0.872422    -0.936125
H    -0.870464    -0.870464    -2.783308
H    0.870464    0.870464    -2.783308
$end

--------------------------------------------------------------

             Standard Nuclear Orientation (Angstroms)
    I     Atom           X                Y                Z
 ----------------------------------------------------------------
    1      C       0.6674027354     0.0000000000    -0.0001513750
    2      C      -0.6674027354    -0.0000000000    -0.0001513750
    3      H       1.2337910245     0.0000000000    -0.9231373750
    4      H      -1.2337910245    -0.0000000000    -0.9231373750
    5      H       1.2310219944     0.0000000000     0.9240456250
    6      H      -1.2310219944    -0.0000000000     0.9240456250
 ----------------------------------------------------------------

    7     -78.0556670739      3.01e-06  Convergence criterion met
 Total energy in the final basis set =      -78.0556670739

             Orbital Energies (a.u.) and Symmetries
 --------------------------------------------------------------

 Alpha MOs, Restricted
 -- Occupied --
-11.234 -11.232  -1.035  -0.794  -0.645  -0.589  -0.509  -0.377
  1 A1    1 B1    2 A1    2 B1    3 A1    4 A1    3 B1    1 B2

 Beta MOs, Restricted
 -- Occupied --
-11.234 -11.232  -1.035  -0.794  -0.645  -0.589  -0.509  -0.377
  1 A1    1 B1    2 A1    2 B1    3 A1    4 A1    3 B1    1 B2

          Ground-State Mulliken Net Atomic Charges

     Atom                 Charge (a.u.)
  ----------------------------------------
      1 C                    -0.224621
      2 C                    -0.224621
      3 H                     0.112428
      4 H                     0.112428
      5 H                     0.112193
      6 H                     0.112193
  ----------------------------------------
  Sum of atomic charges =     0.000000

                    Cartesian Multipole Moments
 -----------------------------------------------------------------
    Charge (ESU x 10^10)
                 0.0000
    Dipole Moment (Debye)
         X      -0.0000      Y       0.0000      Z       0.0006
       Tot       0.0006
    Quadrupole Moments (Debye-Ang)
        XX     -12.2212     XY       0.0000     YY     -16.1867
        XZ      -0.0000     YZ       0.0000     ZZ     -12.3840

 Total job time:  3.99s(wall), 3.74s(cpu)
        *  Thank you very much for using Q-Chem.  Have a nice day.  *
