 Q-Chem 5.0, Q-Chem, Inc., Pleasanton, CA (2017)
 Q-Chem 5.0.2 for Intel X86 EM64T Linux

User input:
--------------------------------------------------------------
$rem
SCF_PRINT                     1
BASIS                         6-311++g**
SCF_SAVE_MATRICES             1
SCF_CONVERGENCE               5
SCF_FINAL_PRINT               1
METHOD                        hf
JOBTYPE                       sp
$end

$molecule
0 1
O    4.855012535    0.847915867    1.349033039
C    5.32441412    0.241999249    0.411201439
H    6.411534668    0.146524254    0.26874794
H    4.686070972    -0.241736004    -0.342833789
$end

--------------------------------------------------------------

             Standard Nuclear Orientation (Angstroms)
    I     Atom           X                Y                Z
 ----------------------------------------------------------------
    1      O       0.6779636313     0.0000999918     0.0000000000
    2      C      -0.5332344828    -0.0000856086     0.0000000000
    3      H      -1.1127573795     0.9355386601     0.0000000000
    4      H      -1.1115447738    -0.9358249430     0.0000000000
 ----------------------------------------------------------------

    8    -113.9010348092      9.14e-06  Convergence criterion met
 Total energy in the final basis set =     -113.9010348092

             Orbital Energies (a.u.) and Symmetries
 --------------------------------------------------------------

 Alpha MOs, Restricted
 -- Occupied --
-20.580 -11.346  -1.407  -0.874  -0.696  -0.653  -0.536  -0.445
  1 A'    2 A'    3 A'    4 A'    5 A'    6 A'    1 A"    7 A'

 Beta MOs, Restricted
 -- Occupied --
-20.580 -11.346  -1.407  -0.874  -0.696  -0.653  -0.536  -0.445
  1 A'    2 A'    3 A'    4 A'    5 A'    6 A'    1 A"    7 A'

          Ground-State Mulliken Net Atomic Charges

     Atom                 Charge (a.u.)
  ----------------------------------------
      1 O                    -0.307411
      2 C                     0.118838
      3 H                     0.094260
      4 H                     0.094313
  ----------------------------------------
  Sum of atomic charges =     0.000000

                    Cartesian Multipole Moments
 -----------------------------------------------------------------
    Charge (ESU x 10^10)
                 0.0000
    Dipole Moment (Debye)
         X      -2.9762      Y      -0.0008      Z      -0.0000
       Tot       2.9762
    Quadrupole Moments (Debye-Ang)
        XX     -12.2178     XY      -0.0005     YY     -11.4716
        XZ       0.0000     YZ      -0.0000     ZZ     -11.7436

 Total job time:  3.61s(wall), 3.47s(cpu)
        *  Thank you very much for using Q-Chem.  Have a nice day.  *
