 Q-Chem 5.0, Q-Chem, Inc., Pleasanton, CA (2017)
 Q-Chem 5.0.2 for Intel X86 EM64T Linux

User input:
--------------------------------------------------------------
$rem
SCF_PRINT                     1
BASIS                         6-311++g**
SCF_SAVE_MATRICES             1
SCF_CONVERGENCE               5
SCF_FINAL_PRINT               1
METHOD                        hf
JOBTYPE                       sp
$end

$molecule
0 1
O    -1.551007    -0.11452    0.0
H    -1.934259    0.762503    0.0
H    -0.599677    0.040712    0.0
$end

--------------------------------------------------------------

             Standard Nuclear Orientation (Angstroms)
    I     Atom           X                Y                Z
 ----------------------------------------------------------------
    1      O      -0.0016647187    -0.1178128121    -0.0000000000
    2      H      -0.7519557213     0.4764218633     0.0000000000
    3      H       0.7652734708     0.4660806338    -0.0000000000
 ----------------------------------------------------------------

    7     -76.0525759983      8.34e-06  Convergence criterion met
 Total energy in the final basis set =      -76.0525759983

             Orbital Energies (a.u.) and Symmetries
 --------------------------------------------------------------

 Alpha MOs, Restricted
 -- Occupied --
-20.567  -1.354  -0.719  -0.584  -0.510
  1 A'    2 A'    3 A'    4 A'    1 A"

 Beta MOs, Restricted
 -- Occupied --
-20.567  -1.354  -0.719  -0.584  -0.510
  1 A'    2 A'    3 A'    4 A'    1 A"

          Ground-State Mulliken Net Atomic Charges

     Atom                 Charge (a.u.)
  ----------------------------------------
      1 O                    -0.511553
      2 H                     0.255410
      3 H                     0.256143
  ----------------------------------------
  Sum of atomic charges =    -0.000000

                    Cartesian Multipole Moments
 -----------------------------------------------------------------
    Charge (ESU x 10^10)
                -0.0000
    Dipole Moment (Debye)
         X       0.0273      Y       2.2452      Z      -0.0000
       Tot       2.2453
    Quadrupole Moments (Debye-Ang)
        XX      -4.2511     XY      -0.0099     YY      -6.2886
        XZ      -0.0000     YZ       0.0000     ZZ      -7.5671

 Total job time:  1.26s(wall), 0.96s(cpu)
        *  Thank you very much for using Q-Chem.  Have a nice day.  *
