 Q-Chem 5.0, Q-Chem, Inc., Pleasanton, CA (2017)
 Q-Chem 5.0.2 for Intel X86 EM64T Linux

User input:
--------------------------------------------------------------
$rem
SCF_PRINT                     1
BASIS                         6-311++g**
SCF_SAVE_MATRICES             1
SCF_CONVERGENCE               5
SCF_FINAL_PRINT               1
METHOD                        hf
JOBTYPE                       sp
$end

$molecule
0 1
C    0.0    -0.667578    -2.124659
C    0.0    0.667578    -2.124659
H    0.923621    -1.232253    -2.126185
H    -0.923621    -1.232253    -2.126185
H    -0.923621    1.232253    -2.126185
H    0.923621    1.232253    -2.126185
C    0.0    0.0    2.900503
C    0.0    0.0    1.69324
H    0.0    0.0    0.627352
H    0.0    0.0    3.963929
$end

--------------------------------------------------------------

             Standard Nuclear Orientation (Angstroms)
    I     Atom           X                Y                Z
 ----------------------------------------------------------------
    1      C      -0.6675780000    -0.0000000000     2.0630953667
    2      C       0.6675780000     0.0000000000     2.0630953667
    3      H      -1.2322530000     0.9236210000     2.0646213667
    4      H      -1.2322530000    -0.9236210000     2.0646213667
    5      H       1.2322530000    -0.9236210000     2.0646213667
    6      H       1.2322530000     0.9236210000     2.0646213667
    7      C       0.0000000000    -0.0000000000    -2.9620666333
    8      C       0.0000000000    -0.0000000000    -1.7548036333
    9      H       0.0000000000    -0.0000000000    -0.6889156333
   10      H       0.0000000000    -0.0000000000    -4.0254926333
 ----------------------------------------------------------------

    7    -154.8978830830      6.12e-06  Convergence criterion met
 Total energy in the final basis set =     -154.8978830830

             Orbital Energies (a.u.) and Symmetries
 --------------------------------------------------------------

 Alpha MOs, Restricted
 -- Occupied --
-11.242 -11.241 -11.239 -11.235  -1.045  -1.025  -0.803  -0.761
  1 A1    1 B1    2 A1    3 A1    4 A1    5 A1    2 B1    6 A1
 -0.675  -0.654  -0.597  -0.517  -0.404  -0.404  -0.387
  7 A1    1 B2    8 A1    1 A2    3 B1    2 B2    9 A1

 Beta MOs, Restricted
 -- Occupied --
-11.242 -11.241 -11.239 -11.235  -1.045  -1.025  -0.803  -0.761
  1 A1    1 B1    2 A1    3 A1    4 A1    5 A1    2 B1    6 A1
 -0.675  -0.654  -0.597  -0.517  -0.404  -0.404  -0.387
  7 A1    1 B2    8 A1    1 A2    3 B1    2 B2    9 A1

          Ground-State Mulliken Net Atomic Charges

     Atom                 Charge (a.u.)
  ----------------------------------------
      1 C                    -0.269100
      2 C                    -0.269100
      3 H                     0.134541
      4 H                     0.134541
      5 H                     0.134541
      6 H                     0.134541
      7 C                    -0.533629
      8 C                     0.162033
      9 H                     0.142171
     10 H                     0.229460
  ----------------------------------------
  Sum of atomic charges =    -0.000000

                    Cartesian Multipole Moments
 -----------------------------------------------------------------
    Charge (ESU x 10^10)
                -0.0000
    Dipole Moment (Debye)
         X      -0.0000      Y      -0.0000      Z       0.3132
       Tot       0.3132
    Quadrupole Moments (Debye-Ang)
        XX     -26.2037     XY       0.0000     YY     -26.4290
        XZ      -0.0000     YZ      -0.0000     ZZ     -23.0281

 Total job time:  15.24s(wall), 14.93s(cpu)
        *  Thank you very much for using Q-Chem.  Have a nice day.  *
