 Q-Chem 5.0, Q-Chem, Inc., Pleasanton, CA (2017)
 Q-Chem 5.0.2 for Intel X86 EM64T Linux

User input:
--------------------------------------------------------------
$molecule
   0  1
   C       -2.83034        2.46352        0.00000
   C       -1.31827        2.46353       -0.00000
   H       -3.82434        2.46352        0.00000
   H       -0.32427        2.46353       -0.00000
$end

$rem
   JOBTYPE              aimd
   AIMD_METHOD          bomd
   METHOD               hf
   BASIS                6-31g*
   TIME_STEP            20        (20 a.u. = 0.48 fs)
   AIMD_STEPS           200
   AIMD_INIT_VELOC      thermal
   AIMD_TEMP            298
$end
--------------------------------------------------------------

   10     -76.6634609657      2.16e-09  Convergence criterion met
 Total energy in the final basis set =      -76.6634609657

                    Orbital Energies (a.u.)
 --------------------------------------------------------------

 Alpha MOs
 -- Occupied --
-11.315 -11.314  -0.955  -0.828  -0.665  -0.345  -0.345

          Ground-State Mulliken Net Atomic Charges

     Atom                 Charge (a.u.)
  ----------------------------------------
      1 C                    -0.286802
      2 C                    -0.286803
      3 H                     0.286802
      4 H                     0.286802
  ----------------------------------------
  Sum of atomic charges =     0.000000

                    Cartesian Multipole Moments
 -----------------------------------------------------------------
    Charge (ESU x 10^10)
                -0.0000
    Dipole Moment (Debye)
         X      -0.0000      Y      -0.0000      Z       0.0000
       Tot       0.0000
    Quadrupole Moments (Debye-Ang)
        XX      -5.7495     XY       0.0000     YY     -14.3712
        XZ      -0.0000     YZ       0.0000     ZZ     -14.3712

   14     -76.6677496086      3.47E-09  00000 Convergence criterion met
 Total energy in the final basis set = -76.66774961
   14     -76.6797384701      3.57E-09  00000 Convergence criterion met
 Total energy in the final basis set = -76.67973847
   13     -76.6962821403      8.77E-09  00000 Convergence criterion met
 Total energy in the final basis set = -76.69628214
   14     -76.7141149208      2.48E-09  00000 Convergence criterion met
 Total energy in the final basis set = -76.71411492
   14     -76.7312130143      2.32E-09  00000 Convergence criterion met
 Total energy in the final basis set = -76.73121301
   14     -76.7467730356      2.33E-09  00000 Convergence criterion met
 Total energy in the final basis set = -76.74677304
   13     -76.7604461629      8.67E-09  00000 Convergence criterion met
 Total energy in the final basis set = -76.73199991
   15     -76.7217700314      9.82E-09  00000 Convergence criterion met
 Total energy in the final basis set = -76.72177003
   16     -76.7118977357      6.53E-09  00000 Convergence criterion met
 Total energy in the final basis set = -76.71189774
   17     -76.7019211942      3.01E-09  00000 Convergence criterion met
 Total energy in the final basis set = -76.70192119
   17     -76.6913247693      3.96E-09  00000 Convergence criterion met
 Total energy in the final basis set = -76.69132477
   16     -76.6803147811      9.53E-09  00000 Convergence criterion met
 Total energy in the final basis set = -76.68031478
   17     -76.6703547062      4.06E-09  00000 Convergence criterion met
 Total energy in the final basis set = -76.67035471

             Standard Nuclear Orientation (Angstroms)
    I     Atom           X                Y                Z
 ----------------------------------------------------------------
    1      C      -2.6321387988     2.7298740085     0.4183976361
    2      C      -1.4955624703     2.2400119651    -0.4277070283
    3      H      -3.4115460666     2.9280365982     0.9611447301
    4      H      -0.9860193859     1.4889753205    -0.8502999493
 ----------------------------------------------------------------

   17     -76.6638705831      4.34E-09  00000 Convergence criterion met
 Total energy in the final basis set = -76.66387058
 Total job time:  344.94s(wall), 346.20s(cpu)
        *  Thank you very much for using Q-Chem.  Have a nice day.  *
