 Q-Chem 5.0, Q-Chem, Inc., Pleasanton, CA (2017)
 Q-Chem 5.0.2 for Intel X86 EM64T Linux

User input:
--------------------------------------------------------------
$rem
SCF_PRINT                     1
BASIS                         6-311++g**
SCF_SAVE_MATRICES             1
SCF_CONVERGENCE               5
SCF_FINAL_PRINT               1
METHOD                        hf
JOBTYPE                       sp
$end

$molecule
0 1
I    0.49436076    0.000136728    -0.299186147
H    -0.026818451    9.824e-06    1.227779722
$end

--------------------------------------------------------------

             Standard Nuclear Orientation (Angstroms)
    I     Atom           X                Y                Z
 ----------------------------------------------------------------
    1      I       0.0000000000    -0.0000000000    -0.0298788853
    2      H      -0.0000000000    -0.0000000000     1.5835809224
 ----------------------------------------------------------------

    7   -6917.3974421078      7.01e-06  Convergence criterion met
 Total energy in the final basis set =    -6917.3974421078

                    Orbital Energies (a.u.)
 --------------------------------------------------------------

 Alpha MOs
 -- Occupied --
*******-180.875-169.681-169.680-169.680 -37.929 -33.116 -33.113
-33.113 -24.301 -24.299 -24.299 -24.296 -24.296  -7.246  -5.479
 -5.468  -5.468  -2.403  -2.397  -2.397  -2.385  -2.385  -0.871
 -0.531  -0.387  -0.387

          Ground-State Mulliken Net Atomic Charges

     Atom                 Charge (a.u.)
  ----------------------------------------
      1 I                    -0.040003
      2 H                     0.040003
  ----------------------------------------
  Sum of atomic charges =    -0.000000

                    Cartesian Multipole Moments
 -----------------------------------------------------------------
    Charge (ESU x 10^10)
                -0.0000
    Dipole Moment (Debye)
         X       0.0000      Y      -0.0000      Z       0.8008
       Tot       0.8008
    Quadrupole Moments (Debye-Ang)
        XX     -30.7079     XY      -0.0000     YY     -30.7079
        XZ       0.0000     YZ      -0.0000     ZZ     -25.6167

 Total job time:  10.73s(wall), 9.04s(cpu)
        *  Thank you very much for using Q-Chem.  Have a nice day.  *
