 Q-Chem 5.0, Q-Chem, Inc., Pleasanton, CA (2017)
 Q-Chem 5.0.2 for Intel X86 EM64T Linux

User input:
--------------------------------------------------------------
$rem
SCF_PRINT                     1
BASIS                         6-311++g**
SCF_SAVE_MATRICES             1
SCF_CONVERGENCE               5
SCF_FINAL_PRINT               1
METHOD                        hf
JOBTYPE                       sp
$end

$molecule
0 1
Cl    -2.190285388    -2.636684923    -0.981703134
Cl    -3.492714388    -4.043406923    -1.546246134
$end

--------------------------------------------------------------

             Standard Nuclear Orientation (Angstroms)
    I     Atom           X                Y                Z
 ----------------------------------------------------------------
    1      Cl     -0.0000000000     0.0000000000     0.9992368193
    2      Cl     -0.0000000000     0.0000000000    -0.9992368193
 ----------------------------------------------------------------

    6    -918.9676074921      8.35e-06  Convergence criterion met
 Total energy in the final basis set =     -918.9676074921

                    Orbital Energies (a.u.)
 --------------------------------------------------------------

 Alpha MOs
 -- Occupied --
*******-104.901 -10.624 -10.624  -8.093  -8.093  -8.088  -8.088
 -8.088  -8.088  -1.224  -1.020  -0.599  -0.571  -0.571  -0.450
 -0.450

          Ground-State Mulliken Net Atomic Charges

     Atom                 Charge (a.u.)
  ----------------------------------------
      1 Cl                    0.000000
      2 Cl                    0.000000
  ----------------------------------------
  Sum of atomic charges =     0.000000

                    Cartesian Multipole Moments
 -----------------------------------------------------------------
    Charge (ESU x 10^10)
                 0.0000
    Dipole Moment (Debye)
         X      -0.0000      Y       0.0000      Z      -0.0000
       Tot       0.0000
    Quadrupole Moments (Debye-Ang)
        XX     -25.7549     XY       0.0000     YY     -25.7549
        XZ       0.0000     YZ      -0.0000     ZZ     -22.9066

 Total job time:  5.27s(wall), 4.50s(cpu)
        *  Thank you very much for using Q-Chem.  Have a nice day.  *
