 Q-Chem 5.0, Q-Chem, Inc., Pleasanton, CA (2017)
 Q-Chem 5.0.2 for Intel X86 EM64T Linux

User input:
--------------------------------------------------------------
$rem
SCF_PRINT                     1
BASIS                         6-311++g**
SCF_SAVE_MATRICES             1
SCF_CONVERGENCE               5
SCF_FINAL_PRINT               1
METHOD                        hf
JOBTYPE                       sp
$end

$molecule
0 1
C    0.301152114    -0.173118099    2.764480435
Cl    -0.024870834    -0.077582132    1.017161127
H    1.247502252    0.314602623    2.964654708
H    0.346131151    -1.217442126    3.048836143
H    -0.501709016    0.328185531    3.291345152
C    -0.248215463    0.147563142    -2.354598055
Cl    -0.430872029    0.266976908    -4.12111099
H    -1.097215819    -0.394125438    -1.955018213
H    0.671578312    -0.381551292    -2.136340484
H    -0.212788793    1.148538795    -1.941709395
$end

--------------------------------------------------------------

             Standard Nuclear Orientation (Angstroms)
    I     Atom           X                Y                Z
 ----------------------------------------------------------------
    1      C       3.7007749852    -0.0869110856    -0.0008183729
    2      Cl      1.9279743026     0.0734643195    -0.0002553052
    3      H       3.9574865084    -1.0620235351    -0.3967662617
    4      H       4.0549492846     0.0129285796     1.0180469581
    5      H       4.1160103038     0.6957724275    -0.6240870966
    6      C      -1.4572801979    -0.0233036984     0.0043400152
    7      Cl     -3.2371550596    -0.0092068252    -0.0018059517
    8      H      -1.1054980312     0.9135929526     0.4195100347
    9      H      -1.1194480288    -0.8539930932     0.6121587340
   10      H      -1.1083958919    -0.1373660302    -1.0149508549
 ----------------------------------------------------------------

    7    -998.2655018716      4.56e-06  Convergence criterion met
 Total energy in the final basis set =     -998.2655018716

                    Orbital Energies (a.u.)
 --------------------------------------------------------------

 Alpha MOs
 -- Occupied --
*******-104.816 -11.301 -11.281 -10.561 -10.542  -8.029  -8.026
 -8.026  -8.011  -8.008  -8.008  -1.142  -1.122  -0.928  -0.908
 -0.630  -0.630  -0.611  -0.611  -0.562  -0.536  -0.447  -0.447
 -0.428  -0.428

          Ground-State Mulliken Net Atomic Charges

     Atom                 Charge (a.u.)
  ----------------------------------------
      1 C                    -0.545313
      2 Cl                    0.076977
      3 H                     0.175525
      4 H                     0.172979
      5 H                     0.172059
      6 C                    -0.761486
      7 Cl                    0.197750
      8 H                     0.170146
      9 H                     0.170882
     10 H                     0.170482
  ----------------------------------------
  Sum of atomic charges =     0.000000

                    Cartesian Multipole Moments
 -----------------------------------------------------------------
    Charge (ESU x 10^10)
                 0.0000
    Dipole Moment (Debye)
         X       4.7469      Y      -0.2244      Z       0.0066
       Tot       4.7522
    Quadrupole Moments (Debye-Ang)
        XX     -36.4913     XY      -0.6561     YY     -40.1854
        XZ      -0.0176     YZ       0.0010     ZZ     -40.1940

 Total job time:  49.93s(wall), 49.81s(cpu)
        *  Thank you very much for using Q-Chem.  Have a nice day.  *
