 Q-Chem 5.0, Q-Chem, Inc., Pleasanton, CA (2017)
 Q-Chem 5.0.2 for Intel X86 EM64T Linux

User input:
--------------------------------------------------------------
$rem
SCF_PRINT                     1
BASIS                         6-311++g**
SCF_SAVE_MATRICES             1
SCF_CONVERGENCE               5
SCF_FINAL_PRINT               1
METHOD                        hf
JOBTYPE                       sp
$end

$molecule
0 1
C    1.2171198    8.6352e-05    -0.737292531
C    2.232687859    0.000174717    0.216499979
C    1.925210087    0.000130109    1.575499453
C    0.592512132    0.000178132    1.981957864
C    -0.433049194    7.025e-05    1.038766795
H    1.448302007    -2.0318e-05    -1.79278536
H    3.264633432    0.000102432    -0.107052277
H    2.717093974    -2.3151e-05    2.311239059
H    0.345707498    0.000109507    3.034933333
H    -1.468501456    -9.3207e-05    1.34757497
C    -0.111081725    -0.000108736    -0.316810844
Br    -1.493755973    -0.001747763    -1.606462802
O    -3.785037609    0.000866982    -3.641619578
C    -4.942504639    0.030472744    -3.262526217
C    -5.268278522    0.030763181    -1.784860352
C    -6.074813789    0.067570401    -4.266102134
H    -5.949425709    0.944115224    -4.899332013
H    -5.998004094    -0.807301293    -4.909325767
H    -7.056301133    0.092128453    -3.803511947
H    -6.334373655    0.058880289    -1.583055978
H    -4.834292873    -0.858956293    -1.331613097
H    -4.786131398    0.889881839    -1.321375004
$end

--------------------------------------------------------------

             Standard Nuclear Orientation (Angstroms)
    I     Atom           X                Y                Z
 ----------------------------------------------------------------
    1      C       2.6507377969    -1.1536063001    -0.0090118453
    2      C       4.0224682426    -0.9098465769    -0.0149636655
    3      C       4.5076777305     0.3962860148    -0.0115639240
    4      C       3.6137567156     1.4649825075    -0.0023277355
    5      C       2.2394513821     1.2355621352     0.0037204615
    6      H       2.2675047921    -2.1638720108    -0.0114601088
    7      H       4.7098364212    -1.7447549262    -0.0220888645
    8      H       5.5729200416     0.5796766025    -0.0159903141
    9      H       3.9825320228     2.4816767660     0.0003976703
   10      H       1.5410900114     2.0600383195     0.0110906644
   11      C       1.7682473222    -0.0756242979     0.0004508848
   12      Br     -0.0944539576    -0.4000378163     0.0100813952
   13      O      -3.1255038920    -0.8522133578     0.0208075330
   14      C      -3.8877846102     0.0979357594    -0.0007090838
   15      C      -3.3530466467     1.5134461028     0.0025915072
   16      C      -5.3846739520    -0.1235519331    -0.0312110365
   17      H      -5.6301737444    -0.7184750902    -0.9091799233
   18      H      -5.6674455018    -0.7080912234     0.8425114143
   19      H      -5.9539252217     0.8003283092    -0.0487744990
   20      H      -4.1356911601     2.2651834310    -0.0182162955
   21      H      -2.7374005559     1.6518913328     0.8898288876
   22      H      -2.7003313419     1.6419284510    -0.8592811068
 ----------------------------------------------------------------

    8   -2994.5514041936      6.59e-06  Convergence criterion met
 Total energy in the final basis set =    -2994.5514041936

                    Orbital Energies (a.u.)
 --------------------------------------------------------------

 Alpha MOs
 -- Occupied --
******* -65.144 -58.504 -58.503 -58.503 -20.543 -11.339 -11.290
-11.247 -11.246 -11.245 -11.245 -11.242 -11.235 -11.234  -9.824
 -7.438  -7.430  -7.429  -3.178  -3.174  -3.174  -3.163  -3.163
 -1.386  -1.169  -1.064  -1.040  -1.027  -0.973  -0.965  -0.839
 -0.811  -0.744  -0.705  -0.645  -0.640  -0.638  -0.637  -0.621
 -0.599  -0.573  -0.567  -0.563  -0.536  -0.524  -0.509  -0.484
 -0.481  -0.427  -0.414  -0.401  -0.345  -0.324

          Ground-State Mulliken Net Atomic Charges

     Atom                 Charge (a.u.)
  ----------------------------------------
      1 C                    -0.156890
      2 C                    -0.184596
      3 C                    -0.371560
      4 C                    -0.349900
      5 C                    -0.305790
      6 H                     0.237928
      7 H                     0.210031
      8 H                     0.181507
      9 H                     0.216262
     10 H                     0.205276
     11 C                     0.758807
     12 Br                   -0.436952
     13 O                    -0.302188
     14 C                     0.651735
     15 C                    -0.533967
     16 C                    -0.811051
     17 H                     0.176826
     18 H                     0.176742
     19 H                     0.134819
     20 H                     0.121937
     21 H                     0.191347
     22 H                     0.189681
  ----------------------------------------
  Sum of atomic charges =    -0.000000

                    Cartesian Multipole Moments
 -----------------------------------------------------------------
    Charge (ESU x 10^10)
                -0.0000
    Dipole Moment (Debye)
         X      -0.9178      Y       2.7719      Z      -0.0635
       Tot       2.9206
    Quadrupole Moments (Debye-Ang)
        XX     -53.0946     XY      -7.7230     YY     -75.0024
        XZ       0.1387     YZ       0.1122     ZZ     -83.0500

 Total job time:  743.94s(wall), 724.56s(cpu)
        *  Thank you very much for using Q-Chem.  Have a nice day.  *
