 Q-Chem 5.0, Q-Chem, Inc., Pleasanton, CA (2017)
 Q-Chem 5.0.2 for Intel X86 EM64T Linux

User input:
--------------------------------------------------------------
$rem
SCF_PRINT                     1
BASIS                         6-311++g**
SCF_SAVE_MATRICES             1
SCF_CONVERGENCE               5
SCF_FINAL_PRINT               1
METHOD                        hf
JOBTYPE                       sp
$end

$molecule
0 1
C    -0.755422531    -0.796459123    -1.023590391
C    0.634274834    -0.880017014    -1.075233285
C    1.406955202    0.199695367    -0.653144334
C    0.798863737    1.361204515    -0.180597909
C    -0.593166787    1.434312023    -0.133597923
C    -1.376239198    0.359205222    -0.553258516
I    -1.514344238    3.173268101    0.573601106
H    1.110906949    -1.778801728    -1.440619836
H    1.399172302    2.197767355    0.147412751
H    2.48641778    0.142466525    -0.689380574
H    -2.45425225    0.42258112    -0.512807958
H    -1.362353593    -1.630564523    -1.348743149
$end

--------------------------------------------------------------

             Standard Nuclear Orientation (Angstroms)
    I     Atom           X                Y                Z
 ----------------------------------------------------------------
    1      C       2.6315255252    -1.2045397107    -0.0000563627
    2      C       3.3308895320     0.0003659179    -0.0003532479
    3      C       2.6308504163     1.2049065022    -0.0000766254
    4      C       1.2372459460     1.2116430042     0.0001569218
    5      C       0.5471136270    -0.0003883659    -0.0000049749
    6      C       1.2379222525    -1.2119804878     0.0001387784
    7      I      -1.5439785428    -0.0000137267    -0.0000394758
    8      H       4.4118610210     0.0006581067    -0.0002072024
    9      H       0.6952450011     2.1465400192     0.0012964949
   10      H       3.1663950975     2.1445975613     0.0004435486
   11      H       0.6964797315    -2.1471829349     0.0012665568
   12      H       3.1675981232    -2.1439263964     0.0004658825
 ----------------------------------------------------------------

    8   -7146.9808918801      4.72e-06  Convergence criterion met
 Total energy in the final basis set =    -7146.9808918801

                    Orbital Energies (a.u.)
 --------------------------------------------------------------

 Alpha MOs
 -- Occupied --
*******-180.862-169.668-169.667-169.667 -37.916 -33.104 -33.100
-33.100 -24.288 -24.286 -24.286 -24.283 -24.283 -11.295 -11.257
-11.257 -11.254 -11.253 -11.251  -7.233  -5.466  -5.455  -5.455
 -2.390  -2.384  -2.384  -2.372  -2.372  -1.173  -1.041  -1.035
 -0.876  -0.847  -0.798  -0.709  -0.645  -0.643  -0.607  -0.565
 -0.528  -0.516  -0.466  -0.406  -0.373  -0.354  -0.326

          Ground-State Mulliken Net Atomic Charges

     Atom                 Charge (a.u.)
  ----------------------------------------
      1 C                    -0.047178
      2 C                    -0.399518
      3 C                    -0.047401
      4 C                    -0.697040
      5 C                     0.936390
      6 C                    -0.697690
      7 I                    -0.025045
      8 H                     0.198005
      9 H                     0.179778
     10 H                     0.209979
     11 H                     0.179729
     12 H                     0.209992
  ----------------------------------------
  Sum of atomic charges =    -0.000000

                    Cartesian Multipole Moments
 -----------------------------------------------------------------
    Charge (ESU x 10^10)
                -0.0000
    Dipole Moment (Debye)
         X       2.0076      Y       0.0003      Z       0.0024
       Tot       2.0076
    Quadrupole Moments (Debye-Ang)
        XX     -57.1384     XY      -0.0023     YY     -59.0383
        XZ       0.0040     YZ       0.0000     ZZ     -69.4537

 Total job time:  290.41s(wall), 277.94s(cpu)
        *  Thank you very much for using Q-Chem.  Have a nice day.  *
