 Q-Chem 5.0, Q-Chem, Inc., Pleasanton, CA (2017)
 Q-Chem 5.0.2 for Intel X86 EM64T Linux

User input:
--------------------------------------------------------------
$rem
SCF_PRINT                     1
BASIS                         6-311++g**
SCF_SAVE_MATRICES             1
SCF_CONVERGENCE               5
SCF_FINAL_PRINT               1
METHOD                        hf
JOBTYPE                       sp
$end

$molecule
0 1
O    1.350625    0.111469    0.0
H    1.680398    -0.373741    -0.758561
H    1.680398    -0.373741    0.758561
$end

--------------------------------------------------------------

             Standard Nuclear Orientation (Angstroms)
    I     Atom           X                Y                Z
 ----------------------------------------------------------------
    1      O      -0.0000000000    -0.0000000000     0.1173335375
    2      H      -0.7585610000     0.0000000000    -0.4693341500
    3      H       0.7585610000     0.0000000000    -0.4693341500
 ----------------------------------------------------------------

    7     -76.0527284783      8.21e-06  Convergence criterion met
 Total energy in the final basis set =      -76.0527284783

             Orbital Energies (a.u.) and Symmetries
 --------------------------------------------------------------

 Alpha MOs, Restricted
 -- Occupied --
-20.567  -1.355  -0.720  -0.584  -0.510
  1 A1    2 A1    1 B1    3 A1    1 B2

 Beta MOs, Restricted
 -- Occupied --
-20.567  -1.355  -0.720  -0.584  -0.510
  1 A1    2 A1    1 B1    3 A1    1 B2

          Ground-State Mulliken Net Atomic Charges

     Atom                 Charge (a.u.)
  ----------------------------------------
      1 O                    -0.512107
      2 H                     0.256054
      3 H                     0.256054
  ----------------------------------------
  Sum of atomic charges =    -0.000000

                    Cartesian Multipole Moments
 -----------------------------------------------------------------
    Charge (ESU x 10^10)
                -0.0000
    Dipole Moment (Debye)
         X       0.0000      Y      -0.0000      Z      -2.2403
       Tot       2.2403
    Quadrupole Moments (Debye-Ang)
        XX      -4.2444     XY       0.0000     YY      -7.5640
        XZ      -0.0000     YZ      -0.0000     ZZ      -6.2946

 Total job time:  1.10s(wall), 1.04s(cpu)
        *  Thank you very much for using Q-Chem.  Have a nice day.  *
