 Q-Chem 5.0, Q-Chem, Inc., Pleasanton, CA (2017)
 Q-Chem 5.0.2 for Intel X86 EM64T Linux

User input:
--------------------------------------------------------------
$rem
SCF_PRINT                     1
BASIS                         6-311++g**
SCF_SAVE_MATRICES             1
SCF_CONVERGENCE               5
SCF_FINAL_PRINT               1
METHOD                        hf
JOBTYPE                       sp
$end

$molecule
0 1
C    -0.7097741    -0.990423    1.2077018
C    -1.406534    -0.9653529    0.0
C    -0.7097741    -0.990423    -1.2077018
C    0.6839651    -1.0405105    -1.2078652
C    1.3809779    -1.0655522    0.0
C    0.6839651    -1.0405105    1.2078652
H    -1.2499482    -0.968628    2.1440507
H    -2.4869197    -0.923706    0.0
H    -1.2499482    -0.968628    -2.1440507
H    1.2242882    -1.0580753    -2.1442563
H    2.4615886    -1.1029818    0.0
H    1.2242882    -1.0580753    2.1442563
N    -0.0034118    3.5353926    0.0
C    0.0751963    2.370704    0.0
H    0.1476295    1.3052847    0.0
$end

--------------------------------------------------------------

             Standard Nuclear Orientation (Angstroms)
    I     Atom           X                Y                Z
 ----------------------------------------------------------------
    1      C       0.9470634806     0.7120369587    -1.2077018000
    2      C       0.9207922230     1.4087526032    -0.0000000000
    3      C       0.9470634806     0.7120369587     1.2077018000
    4      C       0.9995536742    -0.6816138206     1.2078652000
    5      C       1.0257969678    -1.3785824136     0.0000000000
    6      C       0.9995536742    -0.6816138206    -1.2078652000
    7      H       0.9243372678     1.2521726820    -2.1440507000
    8      H       0.8772828298     2.4890648996    -0.0000000000
    9      H       0.9243372678     1.2521726820     2.1440507000
   10      H       1.0180499502    -1.2219058365     2.1442563000
   11      H       1.0650894553    -2.4591269802     0.0000000000
   12      H       1.0180499502    -1.2219058365    -2.1442563000
   13      N      -3.5775276447    -0.0021266729     0.0000000000
   14      C      -2.4127052573    -0.0787267651     0.0000000000
   15      H      -1.3471626677    -0.1493231039     0.0000000000
 ----------------------------------------------------------------

    8    -323.6570363994      2.73e-06  Convergence criterion met
 Total energy in the final basis set =     -323.6570363994

             Orbital Energies (a.u.) and Symmetries
 --------------------------------------------------------------

 Alpha MOs, Restricted
 -- Occupied --
-15.587 -11.279 -11.260 -11.259 -11.259 -11.258 -11.258 -11.257
  1 A'    2 A'    3 A'    1 A"    4 A'    5 A'    2 A"    6 A'
 -1.216  -1.176  -1.039  -1.039  -0.847  -0.847  -0.794  -0.732
  7 A'    8 A'    9 A'    3 A"    4 A"   10 A'   11 A'   12 A'
 -0.665  -0.642  -0.611  -0.611  -0.568  -0.523  -0.517  -0.517
 13 A'    5 A"   14 A'    6 A"   15 A'   16 A'    7 A"   17 A'
 -0.476  -0.476  -0.361  -0.361
  8 A"   18 A'   19 A'    9 A"

 Beta MOs, Restricted
 -- Occupied --
-15.587 -11.279 -11.260 -11.259 -11.259 -11.258 -11.258 -11.257
  1 A'    2 A'    3 A'    1 A"    4 A'    5 A'    2 A"    6 A'
 -1.216  -1.176  -1.039  -1.039  -0.847  -0.847  -0.794  -0.732
  7 A'    8 A'    9 A'    3 A"    4 A"   10 A'   11 A'   12 A'
 -0.665  -0.642  -0.611  -0.611  -0.568  -0.523  -0.517  -0.517
 13 A'    5 A"   14 A'    6 A"   15 A'   16 A'    7 A"   17 A'
 -0.476  -0.476  -0.361  -0.361
  8 A"   18 A'   19 A'    9 A"

          Ground-State Mulliken Net Atomic Charges

     Atom                 Charge (a.u.)
  ----------------------------------------
      1 C                    -0.206405
      2 C                    -0.206578
      3 C                    -0.206405
      4 C                    -0.213808
      5 C                    -0.222980
      6 C                    -0.213808
      7 H                     0.216255
      8 H                     0.216295
      9 H                     0.216255
     10 H                     0.215889
     11 H                     0.215506
     12 H                     0.215889
     13 N                    -0.231621
     14 C                    -0.037864
     15 H                     0.243380
  ----------------------------------------
  Sum of atomic charges =    -0.000000

                    Cartesian Multipole Moments
 -----------------------------------------------------------------
    Charge (ESU x 10^10)
                -0.0000
    Dipole Moment (Debye)
         X       4.1719      Y      -0.1434      Z      -0.0000
       Tot       4.1743
    Quadrupole Moments (Debye-Ang)
        XX     -71.0497     XY      -0.0297     YY     -43.1825
        XZ      -0.0000     YZ       0.0000     ZZ     -43.1954

 Total job time:  136.87s(wall), 136.06s(cpu)
        *  Thank you very much for using Q-Chem.  Have a nice day.  *
