 Q-Chem 5.0, Q-Chem, Inc., Pleasanton, CA (2017)
 Q-Chem 5.0.2 for Intel X86 EM64T Linux

User input:
--------------------------------------------------------------
$rem
SCF_PRINT                     1
BASIS                         6-311++g**
SCF_SAVE_MATRICES             1
SCF_CONVERGENCE               5
SCF_FINAL_PRINT               1
METHOD                        hf
JOBTYPE                       sp
$end

$molecule
0 1
C    0.081577546    -0.079576968    -0.122248507
Br    1.796548323    0.3971285    0.629679005
H    0.013255521    -1.160016154    -0.156779811
H    -0.692267287    0.331402893    0.514488442
H    0.018180933    0.339827727    -1.118895585
O    4.855012535    0.847915867    1.349033039
C    5.32441412    0.241999249    0.411201439
H    6.411534668    0.146524254    0.26874794
H    4.686070972    -0.241736004    -0.342833789
$end

--------------------------------------------------------------

             Standard Nuclear Orientation (Angstroms)
    I     Atom           X                Y                Z
 ----------------------------------------------------------------
    1      C       2.4259572319    -0.4355036688     0.0001956316
    2      Br      0.5930770359     0.1763116351    -0.0000758155
    3      H       2.5861770524    -1.0317039090    -0.8897953950
    4      H       3.0720868545     0.4337992078    -0.0016025373
    5      H       2.5869497117    -1.0286159125     0.8921172170
    6      O      -2.5603890302     0.5376072666     0.0001452293
    7      C      -2.8498469903    -0.6384943298    -0.0000289151
    8      H      -3.8969088673    -0.9774642777     0.0005712536
    9      H      -2.0795502167    -1.4237924782    -0.0007991292
 ----------------------------------------------------------------

    9   -2725.8953096916      3.61e-06  Convergence criterion met
 Total energy in the final basis set =    -2725.8953096916

                    Orbital Energies (a.u.)
 --------------------------------------------------------------

 Alpha MOs
 -- Occupied --
******* -65.141 -58.501 -58.499 -58.499 -20.574 -11.340 -11.282
 -9.821  -7.435  -7.426  -7.426  -3.174  -3.170  -3.170  -3.160
 -3.160  -1.402  -1.058  -0.893  -0.868  -0.691  -0.648  -0.608
 -0.607  -0.531  -0.501  -0.439  -0.395  -0.395

          Ground-State Mulliken Net Atomic Charges

     Atom                 Charge (a.u.)
  ----------------------------------------
      1 C                    -0.410862
      2 Br                   -0.063256
      3 H                     0.149066
      4 H                     0.154871
      5 H                     0.149067
      6 O                    -0.287865
      7 C                     0.109713
      8 H                     0.102906
      9 H                     0.096361
  ----------------------------------------
  Sum of atomic charges =    -0.000000

                    Cartesian Multipole Moments
 -----------------------------------------------------------------
    Charge (ESU x 10^10)
                -0.0000
    Dipole Moment (Debye)
         X       1.1086      Y      -3.4214      Z      -0.0001
       Tot       3.5965
    Quadrupole Moments (Debye-Ang)
        XX     -26.7673     XY       6.2236     YY     -37.2744
        XZ       0.0017     YZ      -0.0003     ZZ     -37.9159

 Total job time:  88.87s(wall), 80.62s(cpu)
        *  Thank you very much for using Q-Chem.  Have a nice day.  *
