 Q-Chem 5.0, Q-Chem, Inc., Pleasanton, CA (2017)
 Q-Chem 5.0.2 for Intel X86 EM64T Linux

User input:
--------------------------------------------------------------
$rem
SCF_PRINT                     1
BASIS                         6-311++g**
SCF_SAVE_MATRICES             1
SCF_CONVERGENCE               5
SCF_FINAL_PRINT               1
METHOD                        hf
JOBTYPE                       sp
$end

$molecule
0 1
C    1.3932178    0.0362913    -0.6332803
C    0.7280364    -1.1884015    -0.6333017
C    -0.6651797    -1.2247077    -0.6332803
C    -1.3932041    -0.0362972    -0.6333017
C    -0.7280381    1.1884163    -0.6332803
C    0.6651677    1.2246987    -0.6333017
H    2.4742737    0.0644484    -0.631724
H    1.2929588    -2.1105409    -0.6317401
H    -1.1813229    -2.1750081    -0.631724
H    -2.4742614    -0.0644647    -0.6317401
H    -1.2929508    2.1105596    -0.631724
H    1.1813026    2.1750056    -0.6317401
C    0.0    0.0    3.0826195
H    0.5868776    0.8381742    3.4463772
H    -1.0193189    0.0891638    3.4463772
H    0.0    0.0    1.9966697
H    0.4324413    -0.927338    3.4463772
$end

--------------------------------------------------------------

             Standard Nuclear Orientation (Angstroms)
    I     Atom           X                Y                Z
 ----------------------------------------------------------------
    1      C       0.8288286102     1.1204534943     0.7148697228
    2      C      -0.5559156836     1.2780034550     0.7148911333
    3      C      -1.3847554950     0.1575598847     0.7148697228
    4      C      -0.8288256164    -1.1204388318     0.7148911333
    5      C       0.5559268847    -1.2780133790     0.7148697228
    6      C       1.3847413000    -0.1575646232     0.7148911333
    7      H       1.4719490220     1.9898618087     0.7133134225
    8      H      -0.9872763956     2.2696719113     0.7133295412
    9      H      -2.4592453874     0.2798143418     0.7133134225
   10      H      -1.4719553357    -1.9898423948     0.7133295412
   11      H       0.9872963654    -2.2696761505     0.7133134225
   12      H       2.4592317313    -0.2798295165     0.7133295412
   13      C      -0.0000000025     0.0000000018    -3.0010300769
   14      H       1.0232112592    -0.0000000000    -3.3647877841
   15      H      -0.5116056296    -0.8861269439    -3.3647877841
   16      H      -0.0000000025     0.0000000017    -1.9150802769
   17      H      -0.5116056296     0.8861269439    -3.3647877841
 ----------------------------------------------------------------

    6    -270.9639148410      9.89e-06  Convergence criterion met
 Total energy in the final basis set =     -270.9639148410

             Orbital Energies (a.u.) and Symmetries
 --------------------------------------------------------------
 Warning : Irrep of orbital(   2) could not be determined
 Warning : Irrep of orbital(   3) could not be determined
 Warning : Irrep of orbital(   4) could not be determined
 Warning : Irrep of orbital(   5) could not be determined
 Warning : Irrep of orbital(   9) could not be determined
 Warning : Irrep of orbital(  10) could not be determined
 Warning : Irrep of orbital(  12) could not be determined
 Warning : Irrep of orbital(  13) could not be determined
 Warning : Irrep of orbital(  17) could not be determined
 Warning : Irrep of orbital(  18) could not be determined
 Warning : Irrep of orbital(  20) could not be determined
 Warning : Irrep of orbital(  21) could not be determined
 Warning : Irrep of orbital(  22) could not be determined
 Warning : Irrep of orbital(  23) could not be determined
 Warning : Irrep of orbital(  25) could not be determined
 Warning : Irrep of orbital(  26) could not be determined
 Warning : Irrep of orbital(  28) could not be determined
 Warning : Irrep of orbital(  29) could not be determined
 Warning : Irrep of orbital(  31) could not be determined
 Warning : Irrep of orbital(  32) could not be determined
 Warning : Irrep of orbital(  34) could not be determined
 Warning : Irrep of orbital(  35) could not be determined
 Warning : Irrep of orbital(  36) could not be determined
 Warning : Irrep of orbital(  37) could not be determined
 Warning : Irrep of orbital(  41) could not be determined
 Warning : Irrep of orbital(  42) could not be determined
 Warning : Irrep of orbital(  43) could not be determined
 Warning : Irrep of orbital(  44) could not be determined
 Warning : Irrep of orbital(  45) could not be determined
 Warning : Irrep of orbital(  46) could not be determined
 Warning : Irrep of orbital(  48) could not be determined
 Warning : Irrep of orbital(  49) could not be determined
 Warning : Irrep of orbital(  52) could not be determined
 Warning : Irrep of orbital(  53) could not be determined
 Warning : Irrep of orbital(  55) could not be determined
 Warning : Irrep of orbital(  56) could not be determined
 Warning : Irrep of orbital(  58) could not be determined
 Warning : Irrep of orbital(  59) could not be determined
 Warning : Irrep of orbital(  60) could not be determined
 Warning : Irrep of orbital(  61) could not be determined
 Warning : Irrep of orbital(  63) could not be determined
 Warning : Irrep of orbital(  64) could not be determined
 Warning : Irrep of orbital(  68) could not be determined
 Warning : Irrep of orbital(  69) could not be determined
 Warning : Irrep of orbital(  72) could not be determined
 Warning : Irrep of orbital(  73) could not be determined
 Warning : Irrep of orbital(  74) could not be determined
 Warning : Irrep of orbital(  75) could not be determined
 Warning : Irrep of orbital(  78) could not be determined
 Warning : Irrep of orbital(  79) could not be determined
 Warning : Irrep of orbital(  80) could not be determined
 Warning : Irrep of orbital(  81) could not be determined
 Warning : Irrep of orbital(  82) could not be determined
 Warning : Irrep of orbital(  83) could not be determined
 Warning : Irrep of orbital(  88) could not be determined
 Warning : Irrep of orbital(  89) could not be determined
 Warning : Irrep of orbital(  91) could not be determined
 Warning : Irrep of orbital(  92) could not be determined
 Warning : Irrep of orbital(  93) could not be determined
 Warning : Irrep of orbital(  94) could not be determined
 Warning : Irrep of orbital(  96) could not be determined
 Warning : Irrep of orbital(  97) could not be determined
 Warning : Irrep of orbital( 101) could not be determined
 Warning : Irrep of orbital( 102) could not be determined
 Warning : Irrep of orbital( 103) could not be determined
 Warning : Irrep of orbital( 104) could not be determined
 Warning : Irrep of orbital( 105) could not be determined
 Warning : Irrep of orbital( 106) could not be determined
 Warning : Irrep of orbital( 109) could not be determined
 Warning : Irrep of orbital( 110) could not be determined
 Warning : Irrep of orbital( 112) could not be determined
 Warning : Irrep of orbital( 113) could not be determined
 Warning : Irrep of orbital( 116) could not be determined
 Warning : Irrep of orbital( 117) could not be determined
 Warning : Irrep of orbital( 119) could not be determined
 Warning : Irrep of orbital( 120) could not be determined
 Warning : Irrep of orbital( 122) could not be determined
 Warning : Irrep of orbital( 123) could not be determined
 Warning : Irrep of orbital( 124) could not be determined
 Warning : Irrep of orbital( 125) could not be determined
 Warning : Irrep of orbital( 127) could not be determined
 Warning : Irrep of orbital( 128) could not be determined
 Warning : Irrep of orbital( 133) could not be determined
 Warning : Irrep of orbital( 134) could not be determined
 Warning : Irrep of orbital( 136) could not be determined
 Warning : Irrep of orbital( 137) could not be determined
 Warning : Irrep of orbital( 139) could not be determined
 Warning : Irrep of orbital( 140) could not be determined
 Warning : Irrep of orbital( 141) could not be determined
 Warning : Irrep of orbital( 142) could not be determined
 Warning : Irrep of orbital( 144) could not be determined
 Warning : Irrep of orbital( 145) could not be determined
 Warning : Irrep of orbital( 146) could not be determined
 Warning : Irrep of orbital( 147) could not be determined
 Warning : Irrep of orbital( 149) could not be determined
 Warning : Irrep of orbital( 150) could not be determined
 Warning : Irrep of orbital( 151) could not be determined
 Warning : Irrep of orbital( 152) could not be determined
 Warning : Irrep of orbital( 154) could not be determined
 Warning : Irrep of orbital( 155) could not be determined
 Warning : Irrep of orbital( 157) could not be determined
 Warning : Irrep of orbital( 158) could not be determined
 Warning : Irrep of orbital( 160) could not be determined
 Warning : Irrep of orbital( 161) could not be determined
 Warning : Irrep of orbital( 163) could not be determined
 Warning : Irrep of orbital( 164) could not be determined
 Warning : Irrep of orbital( 165) could not be determined
 Warning : Irrep of orbital( 166) could not be determined
 Warning : Irrep of orbital( 168) could not be determined
 Warning : Irrep of orbital( 169) could not be determined
 Warning : Irrep of orbital( 172) could not be determined
 Warning : Irrep of orbital( 173) could not be determined
 Warning : Irrep of orbital( 174) could not be determined
 Warning : Irrep of orbital( 175) could not be determined
 Warning : Irrep of orbital( 177) could not be determined
 Warning : Irrep of orbital( 178) could not be determined
 Warning : Irrep of orbital( 180) could not be determined
 Warning : Irrep of orbital( 181) could not be determined
 Warning : Irrep of orbital( 182) could not be determined
 Warning : Irrep of orbital( 183) could not be determined
 Warning : Irrep of orbital( 186) could not be determined
 Warning : Irrep of orbital( 187) could not be determined
 Warning : Irrep of orbital( 188) could not be determined
 Warning : Irrep of orbital( 189) could not be determined
 Warning : Irrep of orbital( 193) could not be determined
 Warning : Irrep of orbital( 194) could not be determined
 Warning : Irrep of orbital( 196) could not be determined
 Warning : Irrep of orbital( 197) could not be determined
 Warning : Irrep of orbital( 198) could not be determined
 Warning : Irrep of orbital( 199) could not be determined
 Warning : Irrep of orbital( 203) could not be determined
 Warning : Irrep of orbital( 204) could not be determined
 Warning : Irrep of orbital( 205) could not be determined
 Warning : Irrep of orbital( 206) could not be determined
 Warning : Irrep of orbital( 209) could not be determined
 Warning : Irrep of orbital( 210) could not be determined
 Warning : Irrep of orbital( 212) could not be determined
 Warning : Irrep of orbital( 213) could not be determined
 Warning : Irrep of orbital( 215) could not be determined
 Warning : Irrep of orbital( 216) could not be determined
 Warning : Irrep of orbital( 219) could not be determined
 Warning : Irrep of orbital( 220) could not be determined
 Warning : Irrep of orbital( 222) could not be determined
 Warning : Irrep of orbital( 223) could not be determined

 Alpha MOs, Restricted
 -- Occupied --
-11.239 -11.239 -11.239 -11.237 -11.237 -11.237 -11.193  -1.154
  1 A     0 xxx   0 xxx   0 xxx   0 xxx   2 A     3 A     4 A
 -1.018  -1.018  -0.932  -0.827  -0.827  -0.713  -0.646  -0.622
  0 xxx   0 xxx   5 A     0 xxx   0 xxx   6 A     7 A     8 A
 -0.591  -0.591  -0.541  -0.534  -0.534  -0.497  -0.497  -0.495
  0 xxx   0 xxx   9 A     0 xxx   0 xxx   0 xxx   0 xxx  10 A
 -0.339  -0.339
  0 xxx   0 xxx

 Beta MOs, Restricted
 -- Occupied --
-11.239 -11.239 -11.239 -11.237 -11.237 -11.237 -11.193  -1.154
  1 A     0 xxx   0 xxx   0 xxx   0 xxx   2 A     3 A     4 A
 -1.018  -1.018  -0.932  -0.827  -0.827  -0.713  -0.646  -0.622
  0 xxx   0 xxx   5 A     0 xxx   0 xxx   6 A     7 A     8 A
 -0.591  -0.591  -0.541  -0.534  -0.534  -0.497  -0.497  -0.495
  0 xxx   0 xxx   9 A     0 xxx   0 xxx   0 xxx   0 xxx  10 A
 -0.339  -0.339
  0 xxx   0 xxx

          Ground-State Mulliken Net Atomic Charges

     Atom                 Charge (a.u.)
  ----------------------------------------
      1 C                    -0.089669
      2 C                    -0.313872
      3 C                    -0.089669
      4 C                    -0.313872
      5 C                    -0.089669
      6 C                    -0.313872
      7 H                     0.205038
      8 H                     0.201243
      9 H                     0.205038
     10 H                     0.201243
     11 H                     0.205038
     12 H                     0.201243
     13 C                    -0.532420
     14 H                     0.111392
     15 H                     0.111392
     16 H                     0.190024
     17 H                     0.111392
  ----------------------------------------
  Sum of atomic charges =    -0.000000

                    Cartesian Multipole Moments
 -----------------------------------------------------------------
    Charge (ESU x 10^10)
                -0.0000
    Dipole Moment (Debye)
         X       0.0000      Y      -0.0000      Z       0.1806
       Tot       0.1806
    Quadrupole Moments (Debye-Ang)
        XX     -40.3578     XY       0.0000     YY     -40.3578
        XZ      -0.0000     YZ       0.0000     ZZ     -50.6021

 Total job time:  68.48s(wall), 67.95s(cpu)
        *  Thank you very much for using Q-Chem.  Have a nice day.  *
