 Q-Chem 5.0, Q-Chem, Inc., Pleasanton, CA (2017)
 Q-Chem 5.0.2 for Intel X86 EM64T Linux

User input:
--------------------------------------------------------------
$rem
SCF_PRINT                     1
BASIS                         6-311++g**
SCF_SAVE_MATRICES             1
SCF_CONVERGENCE               5
SCF_FINAL_PRINT               1
METHOD                        hf
JOBTYPE                       sp
$end

$molecule
0 1
C    -0.0210742    1.5318615    -1.3639345
C    -1.2746794    0.974103    -1.6074097
C    -1.3783055    -0.2256981    -2.3084154
C    -0.2289426    -0.8664053    -2.7687944
C    1.0247882    -0.3035171    -2.531241
C    1.1289996    0.8966787    -1.829983
H    0.060074    2.4565627    -0.8093957
H    -2.1651002    1.4654521    -1.2405676
H    -2.3509735    -0.6616122    -2.4926698
H    -0.3103419    -1.7955762    -3.3172704
H    1.9165847    -0.7940845    -2.8993942
H    2.1000347    1.3326757    -1.640042
$end

--------------------------------------------------------------

             Standard Nuclear Orientation (Angstroms)
    I     Atom           X                Y                Z
 ----------------------------------------------------------------
    1      C       0.3349353792    -1.3521240598    -0.0011365843
    2      C      -1.0042667296    -0.9668787052     0.0038074144
    3      C      -1.3393420473     0.3856696485     0.0010647850
    4      C      -0.3356755395     1.3532039909    -0.0034577370
    5      C       1.0043679253     0.9666918273    -0.0007150831
    6      C       1.3400964805    -0.3862205347     0.0019746496
    7      H       0.5948897258    -2.4016430397    -0.0113477991
    8      H      -1.7823791597    -1.7174296082    -0.0039806262
    9      H      -2.3788334513     0.6848490728    -0.0007009360
   10      H      -0.5964741331     2.4033405887    -0.0007100742
   11      H       1.7839304906     1.7174855958     0.0085084758
   12      H       2.3781737155    -0.6886556122    -0.0009937082
 ----------------------------------------------------------------

    6    -230.7563059165      6.56e-06  Convergence criterion met
 Total energy in the final basis set =     -230.7563059165

                    Orbital Energies (a.u.)
 --------------------------------------------------------------

 Alpha MOs
 -- Occupied --
-11.238 -11.238 -11.238 -11.237 -11.237 -11.236  -1.153  -1.017
 -1.017  -0.826  -0.826  -0.712  -0.645  -0.621  -0.590  -0.590
 -0.502  -0.496  -0.496  -0.337  -0.337

          Ground-State Mulliken Net Atomic Charges

     Atom                 Charge (a.u.)
  ----------------------------------------
      1 C                    -0.184298
      2 C                    -0.198045
      3 C                    -0.188027
      4 C                    -0.196634
      5 C                    -0.190016
      6 C                    -0.198264
      7 H                     0.192508
      8 H                     0.192128
      9 H                     0.192609
     10 H                     0.192860
     11 H                     0.192688
     12 H                     0.192493
  ----------------------------------------
  Sum of atomic charges =    -0.000000

                    Cartesian Multipole Moments
 -----------------------------------------------------------------
    Charge (ESU x 10^10)
                -0.0000
    Dipole Moment (Debye)
         X      -0.0008      Y      -0.0030      Z      -0.0080
       Tot       0.0086
    Quadrupole Moments (Debye-Ang)
        XX     -31.9184     XY      -0.0046     YY     -31.9214
        XZ       0.0186     YZ       0.0574     ZZ     -41.3066

 Total job time:  69.50s(wall), 68.24s(cpu)
        *  Thank you very much for using Q-Chem.  Have a nice day.  *
