 Q-Chem 5.0, Q-Chem, Inc., Pleasanton, CA (2017)
 Q-Chem 5.0.2 for Intel X86 EM64T Linux

User input:
--------------------------------------------------------------
$rem
SCF_PRINT                     1
BASIS                         6-311++g**
SCF_SAVE_MATRICES             1
SCF_CONVERGENCE               5
SCF_FINAL_PRINT               1
METHOD                        hf
JOBTYPE                       sp
$end

$molecule
0 1
O    4.809254249    0.837030654    1.16946155
C    5.556540758    0.235129869    0.427979466
H    6.648084457    0.296357069    0.53669294
H    5.177061701    -0.398984543    -0.386517855
$end

--------------------------------------------------------------

             Standard Nuclear Orientation (Angstroms)
    I     Atom           X                Y                Z
 ----------------------------------------------------------------
    1      O       0.6784940669     0.0002878059    -0.0000013734
    2      C      -0.5341547541    -0.0001586378     0.0000056773
    3      H      -1.1096026925    -0.9360511029    -0.0000115345
    4      H      -1.1134213180     0.9347004830    -0.0000115420
 ----------------------------------------------------------------

    8    -113.9009009183      9.22e-06  Convergence criterion met
 Total energy in the final basis set =     -113.9009009183

                    Orbital Energies (a.u.)
 --------------------------------------------------------------

 Alpha MOs
 -- Occupied --
-20.580 -11.346  -1.406  -0.874  -0.696  -0.652  -0.535  -0.445

          Ground-State Mulliken Net Atomic Charges

     Atom                 Charge (a.u.)
  ----------------------------------------
      1 O                    -0.308140
      2 C                     0.118611
      3 H                     0.094772
      4 H                     0.094757
  ----------------------------------------
  Sum of atomic charges =     0.000000

                    Cartesian Multipole Moments
 -----------------------------------------------------------------
    Charge (ESU x 10^10)
                 0.0000
    Dipole Moment (Debye)
         X      -2.9849      Y      -0.0017      Z      -0.0000
       Tot       2.9849
    Quadrupole Moments (Debye-Ang)
        XX     -12.2151     XY      -0.0027     YY     -11.4667
        XZ       0.0000     YZ       0.0000     ZZ     -11.7464

 Total job time:  3.87s(wall), 3.45s(cpu)
        *  Thank you very much for using Q-Chem.  Have a nice day.  *
