 Q-Chem 5.0, Q-Chem, Inc., Pleasanton, CA (2017)
 Q-Chem 5.0.2 for Intel X86 EM64T Linux

User input:
--------------------------------------------------------------
$rem
AIMD_STEPS                    400
FOCK_EXTRAP_POINTS            12
MAX_SCF_CYCLES                100
BASIS                         sto-3g
AIMD_INIT_VELOC               thermal
FOCK_EXTRAP_ORDER             6
AIMD_TEMP                     400
AIMD_METHOD                   bomd
TIME_STEP                     20
METHOD                        hf
JOBTYPE                       aimd
$end

$molecule
0 1
C    5.43576    0.89368    -0.00050
C    3.88199    -0.03085    -0.07752
H    5.93338    0.18965    0.65434
H    5.93493    1.80556    -0.48297
C    3.28911    0.96108    -0.98858
C    1.82681    0.73736    -1.23855
H    1.33234    -0.20869    -0.94333
H    1.45670    1.82619    -1.59966
H    3.57967    -0.91718    0.38862
H    3.60349    1.69453    -1.55856
$end

--------------------------------------------------------------

   16    -152.6646018134      3.87e-09  Convergence criterion met
 Total energy in the final basis set =     -152.6646018134

                    Orbital Energies (a.u.)
 --------------------------------------------------------------

 Alpha MOs
 -- Occupied --
-11.021 -11.010 -10.995 -10.978  -0.972  -0.846  -0.755  -0.717
 -0.577  -0.526  -0.491  -0.475  -0.321  -0.308  -0.144

          Ground-State Mulliken Net Atomic Charges

     Atom                 Charge (a.u.)
  ----------------------------------------
      1 C                    -0.123117
      2 C                    -0.063077
      3 H                     0.042912
      4 H                     0.077169
      5 C                    -0.077545
      6 C                    -0.122622
      7 H                     0.053607
      8 H                     0.034571
      9 H                     0.095426
     10 H                     0.082676
  ----------------------------------------
  Sum of atomic charges =     0.000000

                    Cartesian Multipole Moments
 -----------------------------------------------------------------
    Charge (ESU x 10^10)
                -0.0000
    Dipole Moment (Debye)
         X       0.4230      Y      -0.0773      Z       0.2267
       Tot       0.4861
    Quadrupole Moments (Debye-Ang)
        XX     -20.4253     XY       1.5019     YY     -21.5786
        XZ      -0.1105     YZ      -1.5564     ZZ     -24.7580

   17    -152.6675396651      5.82E-09  00000 Convergence criterion met
 Total energy in the final basis set = -152.66753967
   17    -152.6823348684      4.47E-09  00000 Convergence criterion met
 Total energy in the final basis set = -152.68233487
   15    -152.7048976276      9.42E-09  00000 Convergence criterion met
 Total energy in the final basis set = -152.70489763
   16    -152.7306894176      6.06E-09  00000 Convergence criterion met
 Total energy in the final basis set = -152.73068942
   15    -152.7567819610      5.03E-09  00000 Convergence criterion met
 Total energy in the final basis set = -152.75678196
   14    -152.7822411469      9.22E-09  00000 Convergence criterion met
 Total energy in the final basis set = -152.78224115
   14    -152.8076177454      6.37E-09  00000 Convergence criterion met
 Total energy in the final basis set = -152.83610682
   12    -152.8579356228      8.18E-09  00000 Convergence criterion met
 Total energy in the final basis set = -152.85793562
   12    -152.8782754809      5.97E-09  00000 Convergence criterion met
 Total energy in the final basis set = -152.87827548
   12    -152.8892278165      8.21E-09  00000 Convergence criterion met
 Total energy in the final basis set = -152.88922782
   12    -152.8869636892      7.77E-09  00000 Convergence criterion met
 Total energy in the final basis set = -152.88696369
   12    -152.8721512522      6.52E-09  00000 Convergence criterion met
 Total energy in the final basis set = -152.87215125
   12    -152.8502994167      7.41E-09  00000 Convergence criterion met
 Total energy in the final basis set = -152.85029942

             Standard Nuclear Orientation (Angstroms)
    I     Atom           X                Y                Z
 ----------------------------------------------------------------
    1      C       4.4865481603     2.0363175262     0.2109650715
    2      C       4.1535758671     0.7201827605     0.1523046633
    3      H       5.2927090137     2.1254880915     0.6733275205
    4      H       3.9245101737     3.0892561202    -0.1842054038
    5      C       2.9853102257     0.5610961317    -0.9940085317
    6      C       2.7683011808    -0.7298831394    -1.5439832206
    7      H       3.4078230551    -1.5108173162    -1.1635838470
    8      H       2.2372566833    -1.0584047075    -2.6122158057
    9      H       4.9530828427     0.0231619011     0.0064488755
   10      H       2.5006199247     1.4065218672    -1.8143071940
 ----------------------------------------------------------------

   12    -152.8303921056      4.14E-09  00000 Convergence criterion met
 Total energy in the final basis set = -152.83039211
 Total job time:  1010.04s(wall), 974.00s(cpu)
        *  Thank you very much for using Q-Chem.  Have a nice day.  *
