 Q-Chem 5.0, Q-Chem, Inc., Pleasanton, CA (2017)
 Q-Chem 5.0.2 for Intel X86 EM64T Linux

User input:
--------------------------------------------------------------
$rem
AIMD_STEPS                    400
FOCK_EXTRAP_POINTS            12
MAX_SCF_CYCLES                100
BASIS                         sto-3g
AIMD_INIT_VELOC               thermal
FOCK_EXTRAP_ORDER             6
AIMD_TEMP                     400
AIMD_METHOD                   bomd
TIME_STEP                     20
METHOD                        hf
JOBTYPE                       aimd
$end

$molecule
0 1
C    4.65624    -0.40786    -1.02945
C    3.71370    0.22768    -1.73521
H    5.49078    -0.91499    -1.50224
H    4.60695    -0.43608    0.05435
C    3.65851    0.30322    -3.17536
C    4.71810    0.40315    -3.98727
H    4.58302    0.48022    -5.06135
H    5.73608    0.41487    -3.61217
H    2.88326    0.69319    -1.20725
H    2.65946    0.32682    -3.60719
$end

--------------------------------------------------------------

   12    -153.0125583014      2.34e-09  Convergence criterion met
 Total energy in the final basis set =     -153.0125583014

                    Orbital Energies (a.u.)
 --------------------------------------------------------------

 Alpha MOs
 -- Occupied --
-11.030 -11.030 -11.017 -11.017  -1.035  -0.935  -0.792  -0.679
 -0.625  -0.552  -0.541  -0.475  -0.444  -0.377  -0.269

          Ground-State Mulliken Net Atomic Charges

     Atom                 Charge (a.u.)
  ----------------------------------------
      1 C                    -0.124340
      2 C                    -0.060567
      3 H                     0.062328
      4 H                     0.061731
      5 C                    -0.060465
      6 C                    -0.124378
      7 H                     0.061740
      8 H                     0.062286
      9 H                     0.060876
     10 H                     0.060788
  ----------------------------------------
  Sum of atomic charges =    -0.000000

                    Cartesian Multipole Moments
 -----------------------------------------------------------------
    Charge (ESU x 10^10)
                 0.0000
    Dipole Moment (Debye)
         X      -0.0535      Y       0.0140      Z       0.0033
       Tot       0.0554
    Quadrupole Moments (Debye-Ang)
        XX     -22.9588     XY      -0.5956     YY     -24.7321
        XZ       0.1064     YZ      -0.1337     ZZ     -22.5949

   12    -153.0125229061      3.04E-09  00000 Convergence criterion met
 Total energy in the final basis set = -153.01252291
   12    -153.0115491532      3.98E-09  00000 Convergence criterion met
 Total energy in the final basis set = -153.01154915
   12    -153.0101509169      4.37E-09  00000 Convergence criterion met
 Total energy in the final basis set = -153.01015092
   12    -153.0089109941      4.40E-09  00000 Convergence criterion met
 Total energy in the final basis set = -153.00891099
   12    -153.0082415929      4.20E-09  00000 Convergence criterion met
 Total energy in the final basis set = -153.00824159
   12    -153.0082240879      3.87E-09  00000 Convergence criterion met
 Total energy in the final basis set = -153.00822409
   12    -153.0085910957      3.49E-09  00000 Convergence criterion met
 Total energy in the final basis set = -153.00586036
    9    -153.0070909471      2.34E-09  00000 Convergence criterion met
 Total energy in the final basis set = -153.00709095
    9    -153.0085314009      2.58E-09  00000 Convergence criterion met
 Total energy in the final basis set = -153.00853140
    9    -153.0098064329      2.22E-09  00000 Convergence criterion met
 Total energy in the final basis set = -153.00980643
    8    -153.0105070775      9.39E-09  00000 Convergence criterion met
 Total energy in the final basis set = -153.01050708
    8    -153.0103379875      4.43E-09  00000 Convergence criterion met
 Total energy in the final basis set = -153.01033799
    8    -153.0092557297      8.16E-09  00000 Convergence criterion met
 Total energy in the final basis set = -153.00925573

             Standard Nuclear Orientation (Angstroms)
    I     Atom           X                Y                Z
 ----------------------------------------------------------------
    1      C       4.1471063692     0.8899724201    -0.9946071164
    2      C       3.4254177102     0.3010487842    -1.9722140868
    3      H       5.1962436701     1.1122353344    -1.1516384208
    4      H       3.7435677495     1.1725729040    -0.0646992274
    5      C       3.9826524047    -0.0849228720    -3.3195085090
    6      C       5.1842053319    -0.5999965059    -3.6600512036
    7      H       5.5135287166    -0.8286573714    -4.6501646883
    8      H       5.9644468137    -0.6989243311    -2.9119857623
    9      H       2.3830915721     0.0611269202    -1.8286733601
   10      H       3.2440213973    -0.0151382014    -4.1013773987
 ----------------------------------------------------------------

    9    -153.0075329465      1.65E-09  00000 Convergence criterion met
 Total energy in the final basis set = -153.00753295
 Total job time:  758.39s(wall), 736.30s(cpu)
        *  Thank you very much for using Q-Chem.  Have a nice day.  *
