 Q-Chem 5.0, Q-Chem, Inc., Pleasanton, CA (2017)
 Q-Chem 5.0.2 for Intel X86 EM64T Linux

User input:
--------------------------------------------------------------
$rem
AIMD_STEPS                    400
FOCK_EXTRAP_POINTS            12
MAX_SCF_CYCLES                100
BASIS                         sto-3g
AIMD_INIT_VELOC               thermal
FOCK_EXTRAP_ORDER             6
AIMD_TEMP                     400
AIMD_METHOD                   bomd
TIME_STEP                     20
METHOD                        hf
JOBTYPE                       aimd
$end

$molecule
0 1
C    4.57455    0.28078    0.32857
C    3.63350    0.94762    -0.12792
H    5.48494    -0.64860    0.77258
H    5.44531    1.13154    0.34685
C    2.72356    -0.05484    0.08772
C    1.23152    0.48321    -0.45204
H    0.47755    -0.28444    -0.29955
H    0.72397    1.23447    -0.90342
H    3.45918    1.99011    -0.60410
H    2.47130    -1.23859    0.50215
$end

--------------------------------------------------------------

   15    -152.5739990769      8.57e-09  Convergence criterion met
 Total energy in the final basis set =     -152.5739990769

                    Orbital Energies (a.u.)
 --------------------------------------------------------------

 Alpha MOs
 -- Occupied --
-11.050 -11.020 -11.014 -10.954  -1.079  -0.859  -0.747  -0.670
 -0.587  -0.532  -0.459  -0.432  -0.417  -0.278  -0.165

          Ground-State Mulliken Net Atomic Charges

     Atom                 Charge (a.u.)
  ----------------------------------------
      1 C                    -0.084416
      2 C                    -0.066320
      3 H                     0.115893
      4 H                    -0.030927
      5 C                    -0.008861
      6 C                    -0.181103
      7 H                     0.008280
      8 H                     0.056794
      9 H                     0.102801
     10 H                     0.087859
  ----------------------------------------
  Sum of atomic charges =     0.000000

                    Cartesian Multipole Moments
 -----------------------------------------------------------------
    Charge (ESU x 10^10)
                 0.0000
    Dipole Moment (Debye)
         X       0.8599      Y      -0.5449      Z       0.3491
       Tot       1.0762
    Quadrupole Moments (Debye-Ang)
        XX     -18.2593     XY      -3.2136     YY     -21.3406
        XZ       1.9046     YZ      -1.8844     ZZ     -24.3109

   15    -152.5911311473      7.36E-09  00000 Convergence criterion met
 Total energy in the final basis set = -152.59113115
   15    -152.6259791358      5.49E-09  00000 Convergence criterion met
 Total energy in the final basis set = -152.62597914
   15    -152.6729641407      3.83E-09  00000 Convergence criterion met
 Total energy in the final basis set = -152.67296414
   15    -152.7248258882      2.52E-09  00000 Convergence criterion met
 Total energy in the final basis set = -152.72482589
   14    -152.7731642464      5.73E-09  00000 Convergence criterion met
 Total energy in the final basis set = -152.77316425
   14    -152.8101296756      3.40E-09  00000 Convergence criterion met
 Total energy in the final basis set = -152.81012968
   13    -152.8326666689      4.16E-09  00000 Convergence criterion met
 Total energy in the final basis set = -152.75810246
   12    -152.7302673636      4.92E-09  00000 Convergence criterion met
 Total energy in the final basis set = -152.73026736
   12    -152.7461681401      6.12E-09  00000 Convergence criterion met
 Total energy in the final basis set = -152.74616814
   12    -152.7959587927      7.64E-09  00000 Convergence criterion met
 Total energy in the final basis set = -152.79595879
   13    -152.8408910103      2.87E-09  00000 Convergence criterion met
 Total energy in the final basis set = -152.84089101
   12    -152.8568468887      9.51E-09  00000 Convergence criterion met
 Total energy in the final basis set = -152.85684689
   13    -152.8463499821      7.98E-09  00000 Convergence criterion met
 Total energy in the final basis set = -152.84634998

             Standard Nuclear Orientation (Angstroms)
    I     Atom           X                Y                Z
 ----------------------------------------------------------------
    1      C       4.6530438979     1.2896903466    -0.5399018245
    2      C       3.2956388685     1.3017864543    -0.1972293898
    3      H       4.6272027222     0.4656147052    -1.1251646835
    4      H       4.9783402874     2.4482411564    -0.2484230155
    5      C       2.5307728423    -0.1544901305    -0.1592030612
    6      C       1.6745891397    -0.7336951809     0.6611961469
    7      H       1.4348397290    -1.9481859695     0.7702895243
    8      H       1.1267574513    -0.2159302700     1.3014109668
    9      H       3.0258064388     2.0704493095     0.6255047008
   10      H       2.9774793737    -1.1896196101    -0.6581529528
 ----------------------------------------------------------------

   13    -152.8240078008      3.60E-09  00000 Convergence criterion met
 Total energy in the final basis set = -152.82400780
 Total job time:  933.97s(wall), 915.33s(cpu)
        *  Thank you very much for using Q-Chem.  Have a nice day.  *
