 Q-Chem 5.0, Q-Chem, Inc., Pleasanton, CA (2017)
 Q-Chem 5.0.2 for Intel X86 EM64T Linux

User input:
--------------------------------------------------------------
$rem
AIMD_STEPS                    400
FOCK_EXTRAP_POINTS            12
MAX_SCF_CYCLES                100
BASIS                         sto-3g
AIMD_INIT_VELOC               thermal
FOCK_EXTRAP_ORDER             6
AIMD_TEMP                     400
AIMD_METHOD                   bomd
TIME_STEP                     20
METHOD                        hf
JOBTYPE                       aimd
$end

$molecule
0 1
C    4.59782    0.26917    0.33148
C    3.48375    0.83300    -0.14859
H    5.54890    0.78845    0.26750
H    4.59614    -0.71199    0.79536
C    2.49144    0.07065    0.01971
C    1.32680    0.90601    -0.56562
H    0.13017    -0.19170    -0.63705
H    0.55550    1.86572    -0.94537
H    3.54348    1.81929    -0.60415
H    1.81521    -0.82693    0.30097
$end

--------------------------------------------------------------

   15    -152.6308277116      3.90e-09  Convergence criterion met
 Total energy in the final basis set =     -152.6308277116

                    Orbital Energies (a.u.)
 --------------------------------------------------------------

 Alpha MOs
 -- Occupied --
-11.046 -11.042 -11.023 -10.988  -1.075  -0.891  -0.735  -0.696
 -0.606  -0.560  -0.482  -0.431  -0.406  -0.295  -0.186

          Ground-State Mulliken Net Atomic Charges

     Atom                 Charge (a.u.)
  ----------------------------------------
      1 C                    -0.128024
      2 C                    -0.074463
      3 H                     0.041171
      4 H                     0.049753
      5 C                    -0.055521
      6 C                    -0.019042
      7 H                    -0.130619
      8 H                     0.090257
      9 H                     0.086831
     10 H                     0.139657
  ----------------------------------------
  Sum of atomic charges =    -0.000000

                    Cartesian Multipole Moments
 -----------------------------------------------------------------
    Charge (ESU x 10^10)
                -0.0000
    Dipole Moment (Debye)
         X      -0.3325      Y       0.6716      Z      -0.0579
       Tot       0.7517
    Quadrupole Moments (Debye-Ang)
        XX     -27.4317     XY       0.3773     YY     -20.8040
        XZ      -0.3385     YZ      -2.0507     ZZ     -24.5895

   15    -152.6402615812      2.97E-09  00000 Convergence criterion met
 Total energy in the final basis set = -152.64026158
   14    -152.6635858391      8.02E-09  00000 Convergence criterion met
 Total energy in the final basis set = -152.66358584
   14    -152.6987769933      6.06E-09  00000 Convergence criterion met
 Total energy in the final basis set = -152.69877699
   14    -152.7429285952      4.06E-09  00000 Convergence criterion met
 Total energy in the final basis set = -152.74292860
   13    -152.7922121236      9.96E-09  00000 Convergence criterion met
 Total energy in the final basis set = -152.79221212
   13    -152.8416126003      5.29E-09  00000 Convergence criterion met
 Total energy in the final basis set = -152.84161260
   13    -152.8841652462      3.82E-09  00000 Convergence criterion met
 Total energy in the final basis set = -152.72812051
   11    -152.7411780361      3.37E-09  00000 Convergence criterion met
 Total energy in the final basis set = -152.74117804
   10    -152.7592364156      7.23E-09  00000 Convergence criterion met
 Total energy in the final basis set = -152.75923642
   10    -152.7833226779      4.40E-09  00000 Convergence criterion met
 Total energy in the final basis set = -152.78332268
   10    -152.8142184049      2.75E-09  00000 Convergence criterion met
 Total energy in the final basis set = -152.81421840
   10    -152.8507538785      3.61E-09  00000 Convergence criterion met
 Total energy in the final basis set = -152.85075388
   10    -152.8868366853      3.33E-09  00000 Convergence criterion met
 Total energy in the final basis set = -152.88683669

             Standard Nuclear Orientation (Angstroms)
    I     Atom           X                Y                Z
 ----------------------------------------------------------------
    1      C       4.5142593806    -0.0559599853    -0.3603924626
    2      C       3.7128177236     0.6556370616     0.1970337797
    3      H       5.6199756549    -0.0196007967    -0.4324592900
    4      H       4.2456962526    -0.8895169220    -1.1122744027
    5      C       2.2036224351     0.4335610365     0.2184495527
    6      C       1.3299887560     1.0070739839    -0.3780348661
    7      H       0.3657081452     1.4154709592    -0.1849199808
    8      H       1.6006805493     1.6592065879    -1.1192102858
    9      H       3.9933909478     1.5251132560     0.7279512598
   10      H       2.0204385881    -0.4892092848     0.8209969953
 ----------------------------------------------------------------

   10    -152.9066815317      6.60E-09  00000 Convergence criterion met
 Total energy in the final basis set = -152.90668153
 Total job time:  1038.49s(wall), 1003.84s(cpu)
        *  Thank you very much for using Q-Chem.  Have a nice day.  *
