 Q-Chem 5.0, Q-Chem, Inc., Pleasanton, CA (2017)
 Q-Chem 5.0.2 for Intel X86 EM64T Linux

User input:
--------------------------------------------------------------
$rem
AIMD_STEPS                    400
FOCK_EXTRAP_POINTS            12
MAX_SCF_CYCLES                100
BASIS                         sto-3g
AIMD_INIT_VELOC               thermal
FOCK_EXTRAP_ORDER             6
AIMD_TEMP                     400
AIMD_METHOD                   bomd
TIME_STEP                     20
METHOD                        hf
JOBTYPE                       aimd
$end

$molecule
0 1
C    5.40431    -0.88911    -0.33644
C    4.31190    -0.11750    -0.30824
H    6.22960    -0.69947    0.34271
H    5.50809    -1.72011    -1.02676
C    3.18577    -0.32114    -1.18516
C    2.09463    0.45272    -1.16054
H    1.26970    0.26254    -1.83996
H    1.99223    1.28659    -0.47348
H    4.26145    0.70291    0.40466
H    3.23494    -1.14384    -1.89555
$end

--------------------------------------------------------------

   11    -153.0165303459      3.68e-09  Convergence criterion met
 Total energy in the final basis set =     -153.0165303459

                    Orbital Energies (a.u.)
 --------------------------------------------------------------

 Alpha MOs
 -- Occupied --
-11.031 -11.030 -11.016 -11.016  -1.036  -0.942  -0.772  -0.708
 -0.591  -0.591  -0.498  -0.491  -0.443  -0.399  -0.261

          Ground-State Mulliken Net Atomic Charges

     Atom                 Charge (a.u.)
  ----------------------------------------
      1 C                    -0.124575
      2 C                    -0.059610
      3 H                     0.060917
      4 H                     0.060788
      5 C                    -0.059561
      6 C                    -0.124607
      7 H                     0.060923
      8 H                     0.060758
      9 H                     0.062508
     10 H                     0.062458
  ----------------------------------------
  Sum of atomic charges =     0.000000

                    Cartesian Multipole Moments
 -----------------------------------------------------------------
    Charge (ESU x 10^10)
                -0.0000
    Dipole Moment (Debye)
         X       0.0006      Y       0.0000      Z      -0.0001
       Tot       0.0006
    Quadrupole Moments (Debye-Ang)
        XX     -23.1214     XY      -0.6264     YY     -23.2573
        XZ       0.6811     YZ       1.3284     ZZ     -23.5340

   11    -153.0165543843      5.27E-09  00000 Convergence criterion met
 Total energy in the final basis set = -153.01655438
   11    -153.0150544907      5.84E-09  00000 Convergence criterion met
 Total energy in the final basis set = -153.01505449
   11    -153.0126975125      6.46E-09  00000 Convergence criterion met
 Total energy in the final basis set = -153.01269751
   12    -153.0104472198      3.25E-09  00000 Convergence criterion met
 Total energy in the final basis set = -153.01044722
   12    -153.0090406521      3.96E-09  00000 Convergence criterion met
 Total energy in the final basis set = -153.00904065
   12    -153.0085593619      4.67E-09  00000 Convergence criterion met
 Total energy in the final basis set = -153.00855936
   12    -153.0084308988      5.24E-09  00000 Convergence criterion met
 Total energy in the final basis set = -153.00651497
    9    -153.0057353255      3.88E-09  00000 Convergence criterion met
 Total energy in the final basis set = -153.00573533
    9    -153.0054693238      3.93E-09  00000 Convergence criterion met
 Total energy in the final basis set = -153.00546932
    9    -153.0053366551      4.58E-09  00000 Convergence criterion met
 Total energy in the final basis set = -153.00533666
    9    -153.0049786603      3.95E-09  00000 Convergence criterion met
 Total energy in the final basis set = -153.00497866
    9    -153.0042557118      5.18E-09  00000 Convergence criterion met
 Total energy in the final basis set = -153.00425571
    9    -153.0033045734      6.57E-09  00000 Convergence criterion met
 Total energy in the final basis set = -153.00330457

             Standard Nuclear Orientation (Angstroms)
    I     Atom           X                Y                Z
 ----------------------------------------------------------------
    1      C       5.0608418068    -0.1222098358     0.5142130887
    2      C       3.8533987264    -0.1095594385    -0.0600687530
    3      H       5.1209841414     0.1103016645     1.5597249307
    4      H       5.9681410523    -0.4344180509     0.0611154413
    5      C       3.6184280045    -0.4168261687    -1.4371136639
    6      C       2.4584002580    -0.2200153993    -2.0369182011
    7      H       2.3133679556    -0.6034149006    -3.0515655050
    8      H       1.5310809506     0.0509491864    -1.4613534960
    9      H       3.0892328436     0.3273418706     0.6123460924
   10      H       4.5391809022    -0.8385712029    -1.8573080983
 ----------------------------------------------------------------

    9    -153.0024544032      5.57E-09  00000 Convergence criterion met
 Total energy in the final basis set = -153.00245440
 Total job time:  787.32s(wall), 758.00s(cpu)
        *  Thank you very much for using Q-Chem.  Have a nice day.  *
