 Q-Chem 5.0, Q-Chem, Inc., Pleasanton, CA (2017)
 Q-Chem 5.0.2 for Intel X86 EM64T Linux

User input:
--------------------------------------------------------------
$rem
AIMD_STEPS                    400
FOCK_EXTRAP_POINTS            12
MAX_SCF_CYCLES                100
BASIS                         sto-3g
AIMD_INIT_VELOC               thermal
FOCK_EXTRAP_ORDER             6
AIMD_TEMP                     400
AIMD_METHOD                   bomd
TIME_STEP                     20
METHOD                        hf
JOBTYPE                       aimd
$end

$molecule
0 1
C    4.57455    0.28078    0.32857
C    3.44321    0.82503    -0.13331
H    5.50743    0.83443    0.28962
H    4.60502    -0.71737    0.75362
C    2.17575    0.13833    -0.10764
C    1.04261    0.68425    -0.56367
H    0.11009    0.13003    -0.52441
H    1.01034    1.68482    -0.98285
H    3.47038    1.83028    -0.54877
H    2.14981    -0.86892    0.30310
$end

--------------------------------------------------------------

   11    -153.0165342023      3.67e-09  Convergence criterion met
 Total energy in the final basis set =     -153.0165342023

                    Orbital Energies (a.u.)
 --------------------------------------------------------------

 Alpha MOs
 -- Occupied --
-11.031 -11.030 -11.016 -11.016  -1.036  -0.942  -0.772  -0.708
 -0.591  -0.591  -0.498  -0.491  -0.443  -0.399  -0.261

          Ground-State Mulliken Net Atomic Charges

     Atom                 Charge (a.u.)
  ----------------------------------------
      1 C                    -0.124574
      2 C                    -0.059608
      3 H                     0.060919
      4 H                     0.060786
      5 C                    -0.059558
      6 C                    -0.124607
      7 H                     0.060923
      8 H                     0.060758
      9 H                     0.062506
     10 H                     0.062456
  ----------------------------------------
  Sum of atomic charges =    -0.000000

                    Cartesian Multipole Moments
 -----------------------------------------------------------------
    Charge (ESU x 10^10)
                -0.0000
    Dipole Moment (Debye)
         X       0.0004      Y       0.0001      Z       0.0006
       Tot       0.0007
    Quadrupole Moments (Debye-Ang)
        XX     -22.7834     XY       0.2091     YY     -22.5006
        XZ       0.4007     YZ      -1.0606     ZZ     -24.6311

   12    -153.0165944546      1.38E-09  00000 Convergence criterion met
 Total energy in the final basis set = -153.01659445
   12    -153.0154346099      2.46E-09  00000 Convergence criterion met
 Total energy in the final basis set = -153.01543461
   12    -153.0135661770      3.45E-09  00000 Convergence criterion met
 Total energy in the final basis set = -153.01356618
   12    -153.0116412188      4.19E-09  00000 Convergence criterion met
 Total energy in the final basis set = -153.01164122
   12    -153.0101550546      4.67E-09  00000 Convergence criterion met
 Total energy in the final basis set = -153.01015505
   12    -153.0092311162      4.90E-09  00000 Convergence criterion met
 Total energy in the final basis set = -153.00923112
   12    -153.0086115786      4.92E-09  00000 Convergence criterion met
 Total energy in the final basis set = -153.00969466
    9    -153.0100359987      6.88E-09  00000 Convergence criterion met
 Total energy in the final basis set = -153.01003600
    9    -153.0106121694      5.61E-09  00000 Convergence criterion met
 Total energy in the final basis set = -153.01061217
    9    -153.0112002448      3.14E-09  00000 Convergence criterion met
 Total energy in the final basis set = -153.01120024
    9    -153.0115147278      3.52E-09  00000 Convergence criterion met
 Total energy in the final basis set = -153.01151473
    8    -153.0113362834      9.33E-09  00000 Convergence criterion met
 Total energy in the final basis set = -153.01133628
    9    -153.0105904404      6.03E-09  00000 Convergence criterion met
 Total energy in the final basis set = -153.01059044

             Standard Nuclear Orientation (Angstroms)
    I     Atom           X                Y                Z
 ----------------------------------------------------------------
    1      C       4.5186823611     0.4897157087     0.5524895447
    2      C       3.1947860133     0.7454525674     0.4489537006
    3      H       5.0128597290     1.0309336734     1.3799657385
    4      H       5.0403839045    -0.1235684046    -0.1210051519
    5      C       2.3800851606     0.1352782599    -0.6184221998
    6      C       1.1409403792     0.5421366595    -0.8714421702
    7      H       0.4952773208     0.0417349437    -1.5640454933
    8      H       0.6802264818     1.2730341050    -0.2301090694
    9      H       2.7564709023     1.4739931374     1.1486966285
   10      H       2.8872130917    -0.6146494682    -1.1758924935
 ----------------------------------------------------------------

    9    -153.0093656384      7.53E-09  00000 Convergence criterion met
 Total energy in the final basis set = -153.00936564
 Total job time:  613.13s(wall), 603.49s(cpu)
        *  Thank you very much for using Q-Chem.  Have a nice day.  *
