 Q-Chem 5.0, Q-Chem, Inc., Pleasanton, CA (2017)
 Q-Chem 5.0.2 for Intel X86 EM64T Linux

User input:
--------------------------------------------------------------
$rem
AIMD_STEPS                    400
FOCK_EXTRAP_POINTS            12
MAX_SCF_CYCLES                100
BASIS                         sto-3g
AIMD_INIT_VELOC               thermal
FOCK_EXTRAP_ORDER             6
AIMD_TEMP                     400
AIMD_METHOD                   bomd
TIME_STEP                     20
METHOD                        hf
JOBTYPE                       aimd
$end

$molecule
0 1
C    4.06325    2.13007    0.82391
C    3.28176    1.06944    0.75373
H    4.11323    3.17949    0.56001
H    4.74859    1.86108    1.60312
C    2.07220    1.72571    -0.53132
C    0.90761    1.20358    -0.97646
H    0.89676    0.00390    -0.27291
H    0.01736    1.56014    -2.00241
H    2.57502    0.23225    0.62917
H    2.26976    2.69634    -0.97895
$end

--------------------------------------------------------------

   13    -152.6942548745      5.03e-09  Convergence criterion met
 Total energy in the final basis set =     -152.6942548745

                    Orbital Energies (a.u.)
 --------------------------------------------------------------

 Alpha MOs
 -- Occupied --
-11.051 -11.047 -10.998 -10.969  -1.003  -0.917  -0.751  -0.644
 -0.606  -0.539  -0.482  -0.381  -0.361  -0.291  -0.276

          Ground-State Mulliken Net Atomic Charges

     Atom                 Charge (a.u.)
  ----------------------------------------
      1 C                    -0.121808
      2 C                    -0.036319
      3 H                     0.100447
      4 H                     0.057493
      5 C                    -0.129099
      6 C                    -0.082415
      7 H                    -0.030842
      8 H                     0.049113
      9 H                     0.168620
     10 H                     0.024811
  ----------------------------------------
  Sum of atomic charges =     0.000000

                    Cartesian Multipole Moments
 -----------------------------------------------------------------
    Charge (ESU x 10^10)
                 0.0000
    Dipole Moment (Debye)
         X       0.4391      Y       0.0101      Z       0.3449
       Tot       0.5584
    Quadrupole Moments (Debye-Ang)
        XX     -21.9611     XY       1.1012     YY     -22.1449
        XZ       2.2485     YZ      -0.4697     ZZ     -23.5180

   13    -152.6951409845      4.75E-09  00000 Convergence criterion met
 Total energy in the final basis set = -152.69514098
   13    -152.7079472358      4.20E-09  00000 Convergence criterion met
 Total energy in the final basis set = -152.70794724
   13    -152.7320776879      3.60E-09  00000 Convergence criterion met
 Total energy in the final basis set = -152.73207769
   13    -152.7659558742      3.47E-09  00000 Convergence criterion met
 Total energy in the final basis set = -152.76595587
   13    -152.8063744151      3.88E-09  00000 Convergence criterion met
 Total energy in the final basis set = -152.80637442
   13    -152.8476481351      2.92E-09  00000 Convergence criterion met
 Total energy in the final basis set = -152.84764814
   13    -152.8811635810      3.28E-09  00000 Convergence criterion met
 Total energy in the final basis set = -152.87552516
   12    -152.8943202622      1.70E-09  00000 Convergence criterion met
 Total energy in the final basis set = -152.89432026
   11    -152.9102429255      8.14E-09  00000 Convergence criterion met
 Total energy in the final basis set = -152.91024293
   12    -152.9133222138      4.84E-09  00000 Convergence criterion met
 Total energy in the final basis set = -152.91332221
   12    -152.9017004431      5.11E-09  00000 Convergence criterion met
 Total energy in the final basis set = -152.90170044
   12    -152.8798904267      2.78E-09  00000 Convergence criterion met
 Total energy in the final basis set = -152.87989043
   12    -152.8534314338      5.13E-09  00000 Convergence criterion met
 Total energy in the final basis set = -152.85343143

             Standard Nuclear Orientation (Angstroms)
    I     Atom           X                Y                Z
 ----------------------------------------------------------------
    1      C       3.5078889866     2.9958430282    -0.0265813716
    2      C       3.0900787710     1.9770730602     0.4955365845
    3      H       3.2655822271     3.0673166907    -1.0554050434
    4      H       3.7583008401     3.9120409466     0.3843556062
    5      C       2.2432078397     1.0082667136    -0.4559885577
    6      C       1.4618176246     0.1306925869     0.0519510242
    7      H       1.1625544379    -0.6418212021     1.1103134817
    8      H       0.6408615186    -0.1671539377    -0.8966629077
    9      H       3.6257361582     1.9519138470     1.4487626998
   10      H       2.4275712416     1.6124211099    -1.3944867527
 ----------------------------------------------------------------

   12    -152.8266479496      5.28E-09  00000 Convergence criterion met
 Total energy in the final basis set = -152.82664795
 Total job time:  906.26s(wall), 887.24s(cpu)
        *  Thank you very much for using Q-Chem.  Have a nice day.  *
