 Q-Chem 5.0, Q-Chem, Inc., Pleasanton, CA (2017)
 Q-Chem 5.0.2 for Intel X86 EM64T Linux

User input:
--------------------------------------------------------------
$rem
AIMD_STEPS                    400
FOCK_EXTRAP_POINTS            12
MAX_SCF_CYCLES                100
BASIS                         sto-3g
AIMD_INIT_VELOC               thermal
FOCK_EXTRAP_ORDER             6
AIMD_TEMP                     400
AIMD_METHOD                   bomd
TIME_STEP                     20
METHOD                        hf
JOBTYPE                       aimd
$end

$molecule
0 1
C    8.50377    -2.01399    0.73808
C    7.45957    -1.30100    0.13781
H    9.32890    -1.63359    1.57483
H    8.28004    -3.04465    0.28318
C    4.58255    -1.83145    -0.37568
C    3.65685    -1.26748    -1.24486
H    3.48401    -0.30695    -1.54356
H    3.24528    -1.95349    -1.94274
H    7.65677    -0.39400    0.90053
H    3.99778    -2.58473    0.29466
$end

--------------------------------------------------------------

   18    -152.4856854643      2.77e-09  Convergence criterion met
 Total energy in the final basis set =     -152.4856854643

                    Orbital Energies (a.u.)
 --------------------------------------------------------------

 Alpha MOs
 -- Occupied --
-11.095 -11.069 -10.945 -10.908  -1.013  -0.889  -0.771  -0.601
 -0.595  -0.553  -0.505  -0.380  -0.327  -0.244  -0.166

          Ground-State Mulliken Net Atomic Charges

     Atom                 Charge (a.u.)
  ----------------------------------------
      1 C                    -0.161028
      2 C                    -0.115995
      3 H                     0.045558
      4 H                     0.023487
      5 C                     0.071100
      6 C                    -0.164528
      7 H                     0.105101
      8 H                     0.104862
      9 H                    -0.009673
     10 H                     0.101116
  ----------------------------------------
  Sum of atomic charges =     0.000000

                    Cartesian Multipole Moments
 -----------------------------------------------------------------
    Charge (ESU x 10^10)
                -0.0000
    Dipole Moment (Debye)
         X      -4.1357      Y      -0.3784      Z      -0.4415
       Tot       4.1764
    Quadrupole Moments (Debye-Ang)
        XX     -69.7825     XY       5.3316     YY     -22.3133
        XZ       0.9227     YZ       1.0074     ZZ     -21.9172

   18    -152.4958031581      2.60E-09  00000 Convergence criterion met
 Total energy in the final basis set = -152.49580316
   18    -152.5098960649      2.19E-09  00000 Convergence criterion met
 Total energy in the final basis set = -152.50989606
   18    -152.5253091501      2.18E-09  00000 Convergence criterion met
 Total energy in the final basis set = -152.52530915
   18    -152.5396146027      2.15E-09  00000 Convergence criterion met
 Total energy in the final basis set = -152.53961460
   18    -152.5513979047      1.87E-09  00000 Convergence criterion met
 Total energy in the final basis set = -152.55139790
   18    -152.5608151967      1.51E-09  00000 Convergence criterion met
 Total energy in the final basis set = -152.56081520
   17    -152.5696274937      7.43E-09  00000 Convergence criterion met
 Total energy in the final basis set = -152.64255667
   13    -152.6476206976      8.57E-09  00000 Convergence criterion met
 Total energy in the final basis set = -152.64762070
   13    -152.6587698810      7.32E-09  00000 Convergence criterion met
 Total energy in the final basis set = -152.65876988
   13    -152.6751782648      3.89E-09  00000 Convergence criterion met
 Total energy in the final basis set = -152.67517826
   13    -152.6956605844      3.52E-09  00000 Convergence criterion met
 Total energy in the final basis set = -152.69566058
   13    -152.7188008320      3.21E-09  00000 Convergence criterion met
 Total energy in the final basis set = -152.71880083
   13    -152.7427600340      2.41E-09  00000 Convergence criterion met
 Total energy in the final basis set = -152.74276003

             Standard Nuclear Orientation (Angstroms)
    I     Atom           X                Y                Z
 ----------------------------------------------------------------
    1      C       7.8173476998    -1.5926069737     0.4275209779
    2      C       6.4541171923    -0.9993247515     0.4970821500
    3      H       8.8101003714    -1.0642013958     0.6439119825
    4      H       8.0685072229    -2.6525842945     0.6756382469
    5      C       5.0378145628    -1.9265356923    -0.0745484368
    6      C       4.6285751887    -1.7284915495    -1.4061456405
    7      H       5.1651733474    -0.9740944835    -1.9804068358
    8      H       3.8876770910    -2.3198362400    -1.7266513081
    9      H       8.0170756082    -1.8803888101    -0.7819181239
   10      H       5.1981753723    -3.0142713878     0.4911967734
 ----------------------------------------------------------------

   13    -152.7645286512      2.40E-09  00000 Convergence criterion met
 Total energy in the final basis set = -152.76452865
 Total job time:  1027.03s(wall), 988.57s(cpu)
        *  Thank you very much for using Q-Chem.  Have a nice day.  *
