 Q-Chem 5.0, Q-Chem, Inc., Pleasanton, CA (2017)
 Q-Chem 5.0.2 for Intel X86 EM64T Linux

User input:
--------------------------------------------------------------
$rem
AIMD_STEPS                    400
FOCK_EXTRAP_POINTS            12
MAX_SCF_CYCLES                100
BASIS                         sto-3g
AIMD_INIT_VELOC               thermal
FOCK_EXTRAP_ORDER             6
AIMD_TEMP                     400
AIMD_METHOD                   bomd
TIME_STEP                     20
METHOD                        hf
JOBTYPE                       aimd
$end

$molecule
0 1
C    5.35102    -0.89393    -0.59185
C    4.34003    -0.02581    -0.71219
H    6.27291    -0.60008    -0.10005
H    5.28753    -1.91089    -0.96529
C    3.05215    -1.71460    -1.64525
C    2.04771    0.47471    -1.39140
H    1.12608    0.18028    -1.88332
H    2.07595    1.45775    -0.93260
H    4.45451    0.97924    -0.31161
H    2.81875    -2.92738    -2.21296
$end

--------------------------------------------------------------

   22    -152.3251736535      7.34e-09  Convergence criterion met
 Total energy in the final basis set =     -152.3251736535

                    Orbital Energies (a.u.)
 --------------------------------------------------------------

 Alpha MOs
 -- Occupied --
-11.046 -10.964 -10.962 -10.957  -0.928  -0.859  -0.680  -0.676
 -0.563  -0.528  -0.467  -0.381  -0.280  -0.224  -0.126

          Ground-State Mulliken Net Atomic Charges

     Atom                 Charge (a.u.)
  ----------------------------------------
      1 C                    -0.162887
      2 C                    -0.048299
      3 H                     0.026632
      4 H                     0.039491
      5 C                     0.068609
      6 C                     0.025776
      7 H                     0.053016
      8 H                     0.050241
      9 H                     0.038132
     10 H                    -0.090711
  ----------------------------------------
  Sum of atomic charges =    -0.000000

                    Cartesian Multipole Moments
 -----------------------------------------------------------------
    Charge (ESU x 10^10)
                -0.0000
    Dipole Moment (Debye)
         X      -2.1485      Y       1.4817      Z      -0.4985
       Tot       2.6571
    Quadrupole Moments (Debye-Ang)
        XX     -37.1821     XY       3.6085     YY     -23.1433
        XZ       0.9295     YZ      -1.7241     ZZ     -21.8754

   22    -152.3227969414      7.87E-09  00000 Convergence criterion met
 Total energy in the final basis set = -152.32279694
   22    -152.3207497956      6.15E-09  00000 Convergence criterion met
 Total energy in the final basis set = -152.32074980
   22    -152.3202587652      6.28E-09  00000 Convergence criterion met
 Total energy in the final basis set = -152.32025877
   22    -152.3224000690      5.28E-09  00000 Convergence criterion met
 Total energy in the final basis set = -152.32240007
   22    -152.3274603719      5.78E-09  00000 Convergence criterion met
 Total energy in the final basis set = -152.32746037
   22    -152.3347353593      5.23E-09  00000 Convergence criterion met
 Total energy in the final basis set = -152.33473536
   22    -152.3428565003      3.01E-09  00000 Convergence criterion met
 Total energy in the final basis set = -152.47711697
   14    -152.5273503950      5.31E-09  00000 Convergence criterion met
 Total energy in the final basis set = -152.52735039
   14    -152.5690805810      3.90E-09  00000 Convergence criterion met
 Total energy in the final basis set = -152.56908058
   13    -152.5883385031      6.00E-09  00000 Convergence criterion met
 Total energy in the final basis set = -152.58833850
   14    -152.5875989670      3.98E-09  00000 Convergence criterion met
 Total energy in the final basis set = -152.58759897
   14    -152.5747345677      3.92E-09  00000 Convergence criterion met
 Total energy in the final basis set = -152.57473457
   14    -152.5575522019      8.00E-09  00000 Convergence criterion met
 Total energy in the final basis set = -152.55755220

             Standard Nuclear Orientation (Angstroms)
    I     Atom           X                Y                Z
 ----------------------------------------------------------------
    1      C       6.6112514668    -1.8695801583     0.3356589533
    2      C       6.0189305684    -1.9912201376    -0.7321861949
    3      H       6.5501067098    -2.8038867728     1.1487167990
    4      H       7.1365361449    -0.9989759291     0.7790817292
    5      C       5.3251976764    -0.8105875660    -1.3337528943
    6      C      -2.9322595217     2.3207419123    -2.5704531502
    7      H      -3.7499859070     2.9912045923    -3.0854043623
    8      H      -2.1638130852     2.8437961706    -3.3734585339
    9      H       5.2820316403    -2.8595813266    -1.3425862977
   10      H       6.2159811754     0.2807462288    -1.0079348011
 ----------------------------------------------------------------

   14    -152.5420686290      3.90E-09  00000 Convergence criterion met
 Total energy in the final basis set = -152.54206863
 Total job time:  867.57s(wall), 829.32s(cpu)
        *  Thank you very much for using Q-Chem.  Have a nice day.  *
