 Q-Chem 5.0, Q-Chem, Inc., Pleasanton, CA (2017)
 Q-Chem 5.0.2 for Intel X86 EM64T Linux

User input:
--------------------------------------------------------------
$rem
AIMD_STEPS                    400
FOCK_EXTRAP_POINTS            12
MAX_SCF_CYCLES                100
BASIS                         sto-3g
AIMD_INIT_VELOC               thermal
FOCK_EXTRAP_ORDER             6
AIMD_TEMP                     400
AIMD_METHOD                   bomd
TIME_STEP                     20
METHOD                        hf
JOBTYPE                       aimd
$end

$molecule
0 1
C    7.65778    -2.01775    0.60569
C    6.61363    -1.31889    0.14578
H    8.55500    -1.50858    0.94307
H    7.65404    -3.10213    0.64848
C    5.39852    -1.94060    -0.31786
C    4.39639    -1.25212    -0.87682
H    4.44406    -0.17785    -1.02298
H    3.49949    -1.76198    -1.21403
H    6.67496    -0.23306    0.11559
H    5.30165    -3.01836    -0.20466
$end

--------------------------------------------------------------

   11    -153.0163413969      3.15e-09  Convergence criterion met
 Total energy in the final basis set =     -153.0163413969

                    Orbital Energies (a.u.)
 --------------------------------------------------------------

 Alpha MOs
 -- Occupied --
-11.030 -11.030 -11.016 -11.016  -1.036  -0.942  -0.772  -0.708
 -0.591  -0.591  -0.499  -0.491  -0.443  -0.398  -0.261

          Ground-State Mulliken Net Atomic Charges

     Atom                 Charge (a.u.)
  ----------------------------------------
      1 C                    -0.124625
      2 C                    -0.059627
      3 H                     0.060916
      4 H                     0.060792
      5 C                    -0.059576
      6 C                    -0.124659
      7 H                     0.060766
      8 H                     0.060918
      9 H                     0.062573
     10 H                     0.062522
  ----------------------------------------
  Sum of atomic charges =     0.000000

                    Cartesian Multipole Moments
 -----------------------------------------------------------------
    Charge (ESU x 10^10)
                -0.0000
    Dipole Moment (Debye)
         X       0.0038      Y      -0.0009      Z      -0.0076
       Tot       0.0086
    Quadrupole Moments (Debye-Ang)
        XX     -23.0350     XY       0.1465     YY     -22.0916
        XZ       0.8289     YZ      -0.2176     ZZ     -24.7432

   11    -153.0159254013      8.55E-09  00000 Convergence criterion met
 Total energy in the final basis set = -153.01592540
   12    -153.0150211673      2.33E-09  00000 Convergence criterion met
 Total energy in the final basis set = -153.01502117
   12    -153.0139989375      2.61E-09  00000 Convergence criterion met
 Total energy in the final basis set = -153.01399894
   12    -153.0132855858      2.92E-09  00000 Convergence criterion met
 Total energy in the final basis set = -153.01328559
   12    -153.0131482911      3.21E-09  00000 Convergence criterion met
 Total energy in the final basis set = -153.01314829
   12    -153.0135444529      3.46E-09  00000 Convergence criterion met
 Total energy in the final basis set = -153.01354445
   12    -153.0141305360      3.64E-09  00000 Convergence criterion met
 Total energy in the final basis set = -153.01231625
    8    -153.0122734458      7.12E-09  00000 Convergence criterion met
 Total energy in the final basis set = -153.01227345
    9    -153.0122784485      2.23E-09  00000 Convergence criterion met
 Total energy in the final basis set = -153.01227845
    9    -153.0120780777      2.33E-09  00000 Convergence criterion met
 Total energy in the final basis set = -153.01207808
    9    -153.0114623069      2.88E-09  00000 Convergence criterion met
 Total energy in the final basis set = -153.01146231
    8    -153.0103901081      7.35E-09  00000 Convergence criterion met
 Total energy in the final basis set = -153.01039011
    9    -153.0090541917      3.32E-09  00000 Convergence criterion met
 Total energy in the final basis set = -153.00905419

             Standard Nuclear Orientation (Angstroms)
    I     Atom           X                Y                Z
 ----------------------------------------------------------------
    1      C       7.7321987833    -2.2392389037    -0.0615651806
    2      C       6.7137100990    -1.3770451788    -0.0690974345
    3      H       8.7511578674    -1.8862516524    -0.3042922495
    4      H       7.5082914216    -3.2866521479    -0.0756000012
    5      C       5.3401191749    -1.8346319432     0.0459459827
    6      C       4.2988146142    -1.0851331649    -0.3404982837
    7      H       4.4086509835    -0.0960734250    -0.8124234576
    8      H       3.3072632628    -1.3908470221    -0.1982772925
    9      H       6.8317369676    -0.2948937629    -0.0993631151
   10      H       5.1015543082    -2.7675953364     0.5411628256
 ----------------------------------------------------------------

    9    -153.0078401713      3.31E-09  00000 Convergence criterion met
 Total energy in the final basis set = -153.00784017
 Total job time:  785.73s(wall), 752.11s(cpu)
        *  Thank you very much for using Q-Chem.  Have a nice day.  *
