 Q-Chem 5.0, Q-Chem, Inc., Pleasanton, CA (2017)
 Q-Chem 5.0.2 for Intel X86 EM64T Linux

User input:
--------------------------------------------------------------
$rem
AIMD_STEPS                    400
FOCK_EXTRAP_POINTS            12
MAX_SCF_CYCLES                100
BASIS                         sto-3g
AIMD_INIT_VELOC               thermal
FOCK_EXTRAP_ORDER             6
AIMD_TEMP                     400
AIMD_METHOD                   bomd
TIME_STEP                     20
METHOD                        hf
JOBTYPE                       aimd
$end

$molecule
0 1
C    3.77082    1.49067    0.62649
C    2.96133    1.06114    -0.42503
H    4.13335    1.82765    1.73306
H    5.14226    0.81116    -0.06461
C    1.57925    1.50778    0.17247
C    0.57803    0.94527    -0.46878
H    1.37748    0.18272    -1.50833
H    -0.52007    1.54080    -0.13851
H    3.35965    -0.04210    -1.62480
H    1.38594    2.52739    1.08732
$end

--------------------------------------------------------------

   14    -152.3980689566      8.21e-09  Convergence criterion met
 Total energy in the final basis set =     -152.3980689566

                    Orbital Energies (a.u.)
 --------------------------------------------------------------

 Alpha MOs
 -- Occupied --
-11.038 -11.019 -11.012 -10.994  -0.998  -0.887  -0.664  -0.592
 -0.542  -0.440  -0.422  -0.367  -0.356  -0.252  -0.241

          Ground-State Mulliken Net Atomic Charges

     Atom                 Charge (a.u.)
  ----------------------------------------
      1 C                    -0.050958
      2 C                    -0.008128
      3 H                     0.110760
      4 H                    -0.124420
      5 C                    -0.045555
      6 C                    -0.096743
      7 H                     0.053828
      8 H                     0.048072
      9 H                     0.078386
     10 H                     0.034759
  ----------------------------------------
  Sum of atomic charges =     0.000000

                    Cartesian Multipole Moments
 -----------------------------------------------------------------
    Charge (ESU x 10^10)
                -0.0000
    Dipole Moment (Debye)
         X      -0.3353      Y       0.2051      Z       0.2985
       Tot       0.4935
    Quadrupole Moments (Debye-Ang)
        XX     -28.4127     XY      -0.9929     YY     -22.5848
        XZ       0.6757     YZ       3.6792     ZZ     -20.5005

   14    -152.4091357238      8.14E-09  00000 Convergence criterion met
 Total energy in the final basis set = -152.40913572
   14    -152.4459837541      7.07E-09  00000 Convergence criterion met
 Total energy in the final basis set = -152.44598375
   14    -152.5071819800      5.05E-09  00000 Convergence criterion met
 Total energy in the final basis set = -152.50718198
   14    -152.5894614132      2.83E-09  00000 Convergence criterion met
 Total energy in the final basis set = -152.58946141
   13    -152.6863081552      9.27E-09  00000 Convergence criterion met
 Total energy in the final basis set = -152.68630816
   13    -152.7858802353      5.69E-09  00000 Convergence criterion met
 Total energy in the final basis set = -152.78588024
   13    -152.8685680429      2.66E-09  00000 Convergence criterion met
 Total energy in the final basis set = -152.54883818
   13    -152.5569069085      7.51E-09  00000 Convergence criterion met
 Total energy in the final basis set = -152.55690691
   13    -152.5747534818      6.98E-09  00000 Convergence criterion met
 Total energy in the final basis set = -152.57475348
   13    -152.6028672427      3.28E-09  00000 Convergence criterion met
 Total energy in the final basis set = -152.60286724
   12    -152.6404139969      6.69E-09  00000 Convergence criterion met
 Total energy in the final basis set = -152.64041400
   12    -152.6847879222      3.65E-09  00000 Convergence criterion met
 Total energy in the final basis set = -152.68478792
   12    -152.7307074494      4.85E-09  00000 Convergence criterion met
 Total energy in the final basis set = -152.73070745

             Standard Nuclear Orientation (Angstroms)
    I     Atom           X                Y                Z
 ----------------------------------------------------------------
    1      C       3.4834368350     2.4656522789    -0.6475589086
    2      C       2.9825076562     1.4151941630    -0.0684882212
    3      H       3.3520138514     2.7908527561    -1.6634594430
    4      H       3.6534774973     3.5147594507    -0.1472256635
    5      C       1.9618318474     0.5390874198     0.0715477732
    6      C       0.6519249810     0.5035909708     0.4540780692
    7      H      -0.1901694524     1.0922895578     0.6193826033
    8      H       0.2977644332    -0.6772875451     0.0461238559
    9      H       3.4134608909     1.5070201383     1.0936236496
   10      H       2.0865459301    -0.4115752362     0.6736303650
 ----------------------------------------------------------------

   12    -152.7686576046      2.64E-09  00000 Convergence criterion met
 Total energy in the final basis set = -152.76865760
 Total job time:  981.86s(wall), 960.73s(cpu)
        *  Thank you very much for using Q-Chem.  Have a nice day.  *
