 Q-Chem 5.0, Q-Chem, Inc., Pleasanton, CA (2017)
 Q-Chem 5.0.2 for Intel X86 EM64T Linux

User input:
--------------------------------------------------------------
$rem
AIMD_STEPS                    400
FOCK_EXTRAP_POINTS            12
MAX_SCF_CYCLES                100
BASIS                         sto-3g
AIMD_INIT_VELOC               thermal
FOCK_EXTRAP_ORDER             6
AIMD_TEMP                     400
AIMD_METHOD                   bomd
TIME_STEP                     20
METHOD                        hf
JOBTYPE                       aimd
$end

$molecule
0 1
C    3.04399    -0.45610    0.56218
C    3.37633    -0.03820    -1.02374
H    3.70318    -1.00984    0.80951
H    2.39686    -0.10577    1.15812
C    4.63990    -1.03208    -1.03077
C    5.24864    -1.94196    -0.04917
H    5.95852    -2.01443    -0.92424
H    5.35849    -2.23597    1.10227
H    2.82649    0.69779    -1.67501
H    5.27736    -0.81519    -2.36385
$end

--------------------------------------------------------------

   15    -152.5650040541      4.82e-09  Convergence criterion met
 Total energy in the final basis set =     -152.5650040541

                    Orbital Energies (a.u.)
 --------------------------------------------------------------

 Alpha MOs
 -- Occupied --
-11.047 -11.028 -10.998 -10.991  -0.980  -0.886  -0.787  -0.646
 -0.623  -0.521  -0.473  -0.432  -0.326  -0.315  -0.196

          Ground-State Mulliken Net Atomic Charges

     Atom                 Charge (a.u.)
  ----------------------------------------
      1 C                    -0.210536
      2 C                    -0.051381
      3 H                     0.091406
      4 H                     0.073100
      5 C                     0.029040
      6 C                    -0.162382
      7 H                     0.079516
      8 H                     0.091987
      9 H                     0.085912
     10 H                    -0.026662
  ----------------------------------------
  Sum of atomic charges =     0.000000

                    Cartesian Multipole Moments
 -----------------------------------------------------------------
    Charge (ESU x 10^10)
                -0.0000
    Dipole Moment (Debye)
         X       0.0793      Y       0.3119      Z      -0.0123
       Tot       0.3221
    Quadrupole Moments (Debye-Ang)
        XX     -23.3443     XY       0.0892     YY     -24.5476
        XZ       0.7668     YZ      -1.9559     ZZ     -21.7156

   15    -152.5889345442      6.02E-09  00000 Convergence criterion met
 Total energy in the final basis set = -152.58893454
   15    -152.6304759062      5.08E-09  00000 Convergence criterion met
 Total energy in the final basis set = -152.63047591
   15    -152.6725423568      3.28E-09  00000 Convergence criterion met
 Total energy in the final basis set = -152.67254236
   14    -152.7082978102      8.62E-09  00000 Convergence criterion met
 Total energy in the final basis set = -152.70829781
   14    -152.7378224088      7.02E-09  00000 Convergence criterion met
 Total energy in the final basis set = -152.73782241
   14    -152.7618883620      5.87E-09  00000 Convergence criterion met
 Total energy in the final basis set = -152.76188836
   14    -152.7785864588      4.79E-09  00000 Convergence criterion met
 Total energy in the final basis set = -152.74797493
   12    -152.7635306565      5.46E-09  00000 Convergence criterion met
 Total energy in the final basis set = -152.76353066
   12    -152.7744876870      4.07E-09  00000 Convergence criterion met
 Total energy in the final basis set = -152.77448769
   11    -152.7769187987      3.36E-09  00000 Convergence criterion met
 Total energy in the final basis set = -152.77691880
   11    -152.7700734416      2.15E-09  00000 Convergence criterion met
 Total energy in the final basis set = -152.77007344
   11    -152.7574386969      2.68E-09  00000 Convergence criterion met
 Total energy in the final basis set = -152.75743870
   11    -152.7443951416      3.36E-09  00000 Convergence criterion met
 Total energy in the final basis set = -152.74439514

             Standard Nuclear Orientation (Angstroms)
    I     Atom           X                Y                Z
 ----------------------------------------------------------------
    1      C       2.3454658422     0.0533288391    -0.0595884392
    2      C       3.3754756885    -0.6668697791    -0.0891701288
    3      H       1.9371513946     0.6222786585     0.7736263967
    4      H       1.8187515465     0.5984176161    -0.9462553272
    5      C       4.9683590885    -1.5913075215    -0.1067508797
    6      C       5.6961938470    -1.3975753694    -1.1113283919
    7      H       6.5491212170    -1.7399837560    -1.4407076285
    8      H       5.7854837656    -0.7148892144    -1.9558834205
    9      H       3.2694368264    -0.4880337241    -1.0683220201
   10      H       5.2484862877    -2.1646942397     0.6646798328
 ----------------------------------------------------------------

   11    -152.7335797584      4.98E-09  00000 Convergence criterion met
 Total energy in the final basis set = -152.73357976
 Total job time:  961.30s(wall), 937.69s(cpu)
        *  Thank you very much for using Q-Chem.  Have a nice day.  *
