 Q-Chem 5.0, Q-Chem, Inc., Pleasanton, CA (2017)
 Q-Chem 5.0.2 for Intel X86 EM64T Linux

User input:
--------------------------------------------------------------
$rem
AIMD_STEPS                    400
FOCK_EXTRAP_POINTS            12
MAX_SCF_CYCLES                100
BASIS                         sto-3g
AIMD_INIT_VELOC               thermal
FOCK_EXTRAP_ORDER             6
AIMD_TEMP                     400
AIMD_METHOD                   bomd
TIME_STEP                     20
METHOD                        hf
JOBTYPE                       aimd
$end

$molecule
0 1
C    4.12067    1.32317    0.48466
C    3.04511    0.97297    -0.22961
H    4.05114    1.95971    1.36092
H    5.10763    0.97084    0.20176
C    1.71069    1.40931    0.09822
C    0.63168    1.04063    -0.60177
H    0.69775    0.38433    -1.46359
H    -0.35500    1.39333    -0.31834
H    3.17273    0.33039    -1.09830
H    1.58565    2.06779    0.95533
$end

--------------------------------------------------------------

   11    -153.0165157456      3.62e-09  Convergence criterion met
 Total energy in the final basis set =     -153.0165157456

                    Orbital Energies (a.u.)
 --------------------------------------------------------------

 Alpha MOs
 -- Occupied --
-11.031 -11.030 -11.016 -11.016  -1.036  -0.942  -0.772  -0.708
 -0.591  -0.591  -0.498  -0.491  -0.443  -0.399  -0.261

          Ground-State Mulliken Net Atomic Charges

     Atom                 Charge (a.u.)
  ----------------------------------------
      1 C                    -0.124580
      2 C                    -0.059612
      3 H                     0.060787
      4 H                     0.060919
      5 C                    -0.059564
      6 C                    -0.124610
      7 H                     0.060761
      8 H                     0.060922
      9 H                     0.062513
     10 H                     0.062466
  ----------------------------------------
  Sum of atomic charges =     0.000000

                    Cartesian Multipole Moments
 -----------------------------------------------------------------
    Charge (ESU x 10^10)
                -0.0000
    Dipole Moment (Debye)
         X       0.0002      Y      -0.0015      Z       0.0012
       Tot       0.0020
    Quadrupole Moments (Debye-Ang)
        XX     -22.7215     XY      -0.2935     YY     -24.0494
        XZ       0.0948     YZ       1.4560     ZZ     -23.1494

   12    -153.0152943515      3.22E-09  00000 Convergence criterion met
 Total energy in the final basis set = -153.01529435
   12    -153.0122947630      5.24E-09  00000 Convergence criterion met
 Total energy in the final basis set = -153.01229476
   12    -153.0085641064      6.75E-09  00000 Convergence criterion met
 Total energy in the final basis set = -153.00856411
   12    -153.0052367140      7.64E-09  00000 Convergence criterion met
 Total energy in the final basis set = -153.00523671
   12    -153.0031370052      7.91E-09  00000 Convergence criterion met
 Total energy in the final basis set = -153.00313701
   12    -153.0025288855      7.58E-09  00000 Convergence criterion met
 Total energy in the final basis set = -153.00252889
   12    -153.0030770916      6.62E-09  00000 Convergence criterion met
 Total energy in the final basis set = -153.00439129
    9    -153.0044422623      4.40E-09  00000 Convergence criterion met
 Total energy in the final basis set = -153.00444226
    9    -153.0054300790      5.78E-09  00000 Convergence criterion met
 Total energy in the final basis set = -153.00543008
    9    -153.0067055912      7.98E-09  00000 Convergence criterion met
 Total energy in the final basis set = -153.00670559
    9    -153.0073491289      9.56E-09  00000 Convergence criterion met
 Total energy in the final basis set = -153.00734913
    9    -153.0066957104      9.29E-09  00000 Convergence criterion met
 Total energy in the final basis set = -153.00669571
    9    -153.0046553945      4.79E-09  00000 Convergence criterion met
 Total energy in the final basis set = -153.00465539

             Standard Nuclear Orientation (Angstroms)
    I     Atom           X                Y                Z
 ----------------------------------------------------------------
    1      C       4.2328227932     1.1324681815    -0.2558900000
    2      C       2.9433983618     0.7891663083    -0.2935223108
    3      H       4.5550583157     2.0825663135     0.1916926376
    4      H       4.9010399383     0.6097656581    -0.9044427535
    5      C       1.8211172068     1.4360111309     0.3572825709
    6      C       0.5187641945     1.3799210597    -0.0249324993
    7      H       0.1454108761     0.6063378333    -0.7419939790
    8      H      -0.3304366820     1.9313239347     0.4442880727
    9      H       2.7523425591    -0.1270780202    -0.9005576387
   10      H       2.1417957363     2.1048404216     1.1744714897
 ----------------------------------------------------------------

    9    -153.0017009575      9.06E-09  00000 Convergence criterion met
 Total energy in the final basis set = -153.00170096
 Total job time:  775.52s(wall), 753.74s(cpu)
        *  Thank you very much for using Q-Chem.  Have a nice day.  *
