 Q-Chem 5.0, Q-Chem, Inc., Pleasanton, CA (2017)
 Q-Chem 5.0.2 for Intel X86 EM64T Linux

User input:
--------------------------------------------------------------
$rem
AIMD_STEPS                    400
FOCK_EXTRAP_POINTS            12
MAX_SCF_CYCLES                100
BASIS                         sto-3g
AIMD_INIT_VELOC               thermal
FOCK_EXTRAP_ORDER             6
AIMD_TEMP                     400
AIMD_METHOD                   bomd
TIME_STEP                     20
METHOD                        hf
JOBTYPE                       aimd
$end

$molecule
0 1
C    4.59612    -0.38493    -0.68574
C    3.77446    0.17247    -1.72441
H    5.62856    -0.71465    -1.16375
H    4.35614    -0.59037    0.75516
C    3.83090    0.34113    -3.26097
C    4.72291    0.28156    -4.22698
H    4.84068    0.59576    -5.46679
H    5.59882    0.37418    -4.42153
H    2.77943    0.35232    -0.93454
H    2.81818    0.65236    -3.59510
$end

--------------------------------------------------------------

   13    -152.6894500978      7.80e-09  Convergence criterion met
 Total energy in the final basis set =     -152.6894500978

                    Orbital Energies (a.u.)
 --------------------------------------------------------------

 Alpha MOs
 -- Occupied --
-11.058 -11.021 -11.020 -11.016  -1.000  -0.912  -0.798  -0.663
 -0.564  -0.554  -0.454  -0.379  -0.369  -0.363  -0.252

          Ground-State Mulliken Net Atomic Charges

     Atom                 Charge (a.u.)
  ----------------------------------------
      1 C                    -0.057914
      2 C                    -0.053271
      3 H                     0.028151
      4 H                     0.045484
      5 C                    -0.039099
      6 C                    -0.171176
      7 H                     0.045982
      8 H                     0.107223
      9 H                     0.028664
     10 H                     0.065956
  ----------------------------------------
  Sum of atomic charges =     0.000000

                    Cartesian Multipole Moments
 -----------------------------------------------------------------
    Charge (ESU x 10^10)
                -0.0000
    Dipole Moment (Debye)
         X       0.1249      Y       0.0972      Z      -0.0001
       Tot       0.1583
    Quadrupole Moments (Debye-Ang)
        XX     -22.0919     XY       0.3578     YY     -24.9376
        XZ      -2.0429     YZ      -1.4985     ZZ     -19.3694

   13    -152.7111427986      7.65E-09  00000 Convergence criterion met
 Total energy in the final basis set = -152.71114280
   13    -152.7495653842      7.14E-09  00000 Convergence criterion met
 Total energy in the final basis set = -152.74956538
   13    -152.7934192892      6.37E-09  00000 Convergence criterion met
 Total energy in the final basis set = -152.79341929
   13    -152.8371022581      5.48E-09  00000 Convergence criterion met
 Total energy in the final basis set = -152.83710226
   13    -152.8756140865      4.56E-09  00000 Convergence criterion met
 Total energy in the final basis set = -152.87561409
   13    -152.9006951921      3.68E-09  00000 Convergence criterion met
 Total energy in the final basis set = -152.90069519
   13    -152.9018052357      2.70E-09  00000 Convergence criterion met
 Total energy in the final basis set = -152.87727018
   12    -152.8857152815      2.81E-09  00000 Convergence criterion met
 Total energy in the final basis set = -152.88571528
   11    -152.8887558201      4.98E-09  00000 Convergence criterion met
 Total energy in the final basis set = -152.88875582
   11    -152.8871557434      7.49E-09  00000 Convergence criterion met
 Total energy in the final basis set = -152.88715574
   12    -152.8841897948      3.06E-09  00000 Convergence criterion met
 Total energy in the final basis set = -152.88418979
   11    -152.8833453088      7.94E-09  00000 Convergence criterion met
 Total energy in the final basis set = -152.88334531
   12    -152.8843367797      2.50E-09  00000 Convergence criterion met
 Total energy in the final basis set = -152.88433678

             Standard Nuclear Orientation (Angstroms)
    I     Atom           X                Y                Z
 ----------------------------------------------------------------
    1      C       5.2777600475     1.0235338441    -1.3371264028
    2      C       3.9799147588     0.4532498253    -1.7131456110
    3      H       6.2370349150     0.9092693939    -1.8077180232
    4      H       5.5153008493     1.1110361994    -0.2943321727
    5      C       3.5427350139    -0.2775666322    -2.8963981347
    6      C       4.1237851627    -0.7402310129    -4.0055435587
    7      H       3.5906177907    -1.3158652873    -4.5845847324
    8      H       4.9886546503    -1.1920088440    -3.8044403479
    9      H       3.2074213672     0.3996616715    -0.8076917389
   10      H       2.4851024529     0.1769800850    -2.8834635191
 ----------------------------------------------------------------

   12    -152.8812513678      4.49E-09  00000 Convergence criterion met
 Total energy in the final basis set = -152.88125137
 Total job time:  1005.44s(wall), 974.25s(cpu)
        *  Thank you very much for using Q-Chem.  Have a nice day.  *
