 Q-Chem 5.0, Q-Chem, Inc., Pleasanton, CA (2017)
 Q-Chem 5.0.2 for Intel X86 EM64T Linux

User input:
--------------------------------------------------------------
$rem
AIMD_STEPS                    400
FOCK_EXTRAP_POINTS            12
MAX_SCF_CYCLES                100
BASIS                         sto-3g
AIMD_INIT_VELOC               thermal
FOCK_EXTRAP_ORDER             6
AIMD_TEMP                     400
AIMD_METHOD                   bomd
TIME_STEP                     20
METHOD                        hf
JOBTYPE                       aimd
$end

$molecule
0 1
C    5.41628    -0.85642    -0.58028
C    4.31090    -0.33872    -0.61108
H    6.00356    -0.67089    0.46923
H    5.50809    -1.72011    -1.02676
C    3.18577    -0.32114    -1.18516
C    2.09463    0.45272    -1.16054
H    0.47441    0.44249    -2.28636
H    2.00213    1.27918    -0.43637
H    4.82395    0.83940    -1.34976
H    3.23494    -1.14384    -1.89555
$end

--------------------------------------------------------------

   15    -152.4159119452      4.87e-09  Convergence criterion met
 Total energy in the final basis set =     -152.4159119452

                    Orbital Energies (a.u.)
 --------------------------------------------------------------

 Alpha MOs
 -- Occupied --
-11.043 -11.031 -11.026 -11.000  -1.075  -0.957  -0.788  -0.666
 -0.599  -0.557  -0.506  -0.479  -0.318  -0.285  -0.200

          Ground-State Mulliken Net Atomic Charges

     Atom                 Charge (a.u.)
  ----------------------------------------
      1 C                    -0.127247
      2 C                    -0.052068
      3 H                     0.073185
      4 H                     0.064528
      5 C                    -0.106086
      6 C                    -0.017678
      7 H                     0.007116
      8 H                     0.066690
      9 H                     0.032800
     10 H                     0.058760
  ----------------------------------------
  Sum of atomic charges =     0.000000

                    Cartesian Multipole Moments
 -----------------------------------------------------------------
    Charge (ESU x 10^10)
                -0.0000
    Dipole Moment (Debye)
         X      -0.2350      Y       0.1178      Z      -0.1493
       Tot       0.3023
    Quadrupole Moments (Debye-Ang)
        XX     -24.4453     XY      -0.4085     YY     -23.3235
        XZ       0.4789     YZ      -0.0590     ZZ     -22.9993

   15    -152.4238652329      4.61E-09  00000 Convergence criterion met
 Total energy in the final basis set = -152.42386523
   15    -152.4490635892      3.75E-09  00000 Convergence criterion met
 Total energy in the final basis set = -152.44906359
   15    -152.4888042676      2.62E-09  00000 Convergence criterion met
 Total energy in the final basis set = -152.48880427
   14    -152.5405933961      8.68E-09  00000 Convergence criterion met
 Total energy in the final basis set = -152.54059340
   14    -152.6026204475      4.24E-09  00000 Convergence criterion met
 Total energy in the final basis set = -152.60262045
   14    -152.6727205728      1.89E-09  00000 Convergence criterion met
 Total energy in the final basis set = -152.67272057
   13    -152.7473131245      6.86E-09  00000 Convergence criterion met
 Total energy in the final basis set = -152.75042837
   13    -152.7028765782      7.44E-09  00000 Convergence criterion met
 Total energy in the final basis set = -152.70287658
   13    -152.6418397523      4.34E-09  00000 Convergence criterion met
 Total energy in the final basis set = -152.64183975
   13    -152.5977005216      6.37E-09  00000 Convergence criterion met
 Total energy in the final basis set = -152.59770052
   13    -152.5998602938      4.75E-09  00000 Convergence criterion met
 Total energy in the final basis set = -152.59986029
   13    -152.6427530230      3.16E-09  00000 Convergence criterion met
 Total energy in the final basis set = -152.64275302
   13    -152.6882814772      4.92E-09  00000 Convergence criterion met
 Total energy in the final basis set = -152.68828148

             Standard Nuclear Orientation (Angstroms)
    I     Atom           X                Y                Z
 ----------------------------------------------------------------
    1      C       5.0049878645    -0.6719730534     0.2783779171
    2      C       4.3277494586     0.1897946790    -0.3391736428
    3      H       5.0595253531    -0.4307777842     1.3101793616
    4      H       4.3475988397    -1.6087456946    -0.0848375745
    5      C       3.4985576397    -0.2424883886    -1.8623431299
    6      C       2.2577958671    -0.2502157562    -1.7417389743
    7      H       1.3444322726    -0.3345427219    -2.4617047355
    8      H       1.9992029005     0.7532112054    -1.4919494703
    9      H       4.5633333005     1.1833597351    -0.1322127807
   10      H       3.7624566269    -1.5921370821    -2.1431472833
 ----------------------------------------------------------------

   13    -152.7094031450      4.92E-09  00000 Convergence criterion met
 Total energy in the final basis set = -152.70940314
 Total job time:  1108.30s(wall), 1070.32s(cpu)
        *  Thank you very much for using Q-Chem.  Have a nice day.  *
