 Q-Chem 5.0, Q-Chem, Inc., Pleasanton, CA (2017)
 Q-Chem 5.0.2 for Intel X86 EM64T Linux

User input:
--------------------------------------------------------------
$rem
AIMD_STEPS                    400
FOCK_EXTRAP_POINTS            12
MAX_SCF_CYCLES                100
BASIS                         sto-3g
AIMD_INIT_VELOC               thermal
FOCK_EXTRAP_ORDER             6
AIMD_TEMP                     400
AIMD_METHOD                   bomd
TIME_STEP                     20
METHOD                        hf
JOBTYPE                       aimd
$end

$molecule
0 1
C    3.96337    -0.54850    -0.30100
C    4.31081    0.38706    -1.57277
H    3.15383    -1.95195    -0.12226
H    4.64636    -0.47122    0.88931
C    4.20018    0.10936    -3.22498
C    3.10886    0.11528    -4.13628
H    3.68284    0.29486    -5.26512
H    2.14649    -0.44383    -3.90567
H    5.17619    1.51020    -1.63756
H    5.04198    1.09490    -3.63856
$end

--------------------------------------------------------------

   15    -152.5160313469      7.66e-09  Convergence criterion met
 Total energy in the final basis set =     -152.5160313469

                    Orbital Energies (a.u.)
 --------------------------------------------------------------

 Alpha MOs
 -- Occupied --
-11.029 -11.027 -11.027 -11.023  -0.944  -0.839  -0.704  -0.596
 -0.516  -0.470  -0.416  -0.361  -0.350  -0.307  -0.216

          Ground-State Mulliken Net Atomic Charges

     Atom                 Charge (a.u.)
  ----------------------------------------
      1 C                    -0.038455
      2 C                    -0.033156
      3 H                     0.013825
      4 H                     0.026096
      5 C                    -0.027508
      6 C                    -0.093015
      7 H                     0.054429
      8 H                     0.066020
      9 H                     0.029044
     10 H                     0.002720
  ----------------------------------------
  Sum of atomic charges =    -0.000000

                    Cartesian Multipole Moments
 -----------------------------------------------------------------
    Charge (ESU x 10^10)
                 0.0000
    Dipole Moment (Debye)
         X      -0.0598      Y      -0.1437      Z      -0.1306
       Tot       0.2032
    Quadrupole Moments (Debye-Ang)
        XX     -24.0574     XY       1.3284     YY     -23.2619
        XZ       0.1913     YZ      -0.5862     ZZ     -21.1346

   15    -152.5294397597      7.13E-09  00000 Convergence criterion met
 Total energy in the final basis set = -152.52943976
   15    -152.5634694182      5.67E-09  00000 Convergence criterion met
 Total energy in the final basis set = -152.56346942
   14    -152.6162786856      8.92E-09  00000 Convergence criterion met
 Total energy in the final basis set = -152.61627869
   14    -152.6833587216      8.95E-09  00000 Convergence criterion met
 Total energy in the final basis set = -152.68335872
   14    -152.7562091360      9.22E-09  00000 Convergence criterion met
 Total energy in the final basis set = -152.75620914
   14    -152.8209784127      6.38E-09  00000 Convergence criterion met
 Total energy in the final basis set = -152.82097841
   14    -152.8584852552      5.01E-09  00000 Convergence criterion met
 Total energy in the final basis set = -152.62414122
   13    -152.6175911067      7.05E-09  00000 Convergence criterion met
 Total energy in the final basis set = -152.61759111
   13    -152.6495667499      8.34E-09  00000 Convergence criterion met
 Total energy in the final basis set = -152.64956675
   13    -152.6956982179      9.55E-09  00000 Convergence criterion met
 Total energy in the final basis set = -152.69569822
   13    -152.7311295921      3.27E-09  00000 Convergence criterion met
 Total energy in the final basis set = -152.73112959
   14    -152.7502349414      4.96E-09  00000 Convergence criterion met
 Total energy in the final basis set = -152.75023494
   14    -152.7563115946      2.44E-09  00000 Convergence criterion met
 Total energy in the final basis set = -152.75631159

             Standard Nuclear Orientation (Angstroms)
    I     Atom           X                Y                Z
 ----------------------------------------------------------------
    1      C       3.8953901167    -0.8438523816    -0.7350438986
    2      C       4.5404620164    -0.6048229225    -1.9588451206
    3      H       3.2744786362     0.1897859862    -0.4456314942
    4      H       4.5603948918    -0.7248303188     0.1256135612
    5      C       3.4160359037     0.2384901147    -2.7702274711
    6      C       3.7974276490     1.1283788280    -3.6973706562
    7      H       2.9917177747     1.0905973915    -4.4499742221
    8      H       4.6262477728     2.1485479097    -3.7491641781
    9      H       5.1180165586    -0.6994454700    -2.7789939861
   10      H       2.4898482437    -0.2451381277    -3.2573675401
 ----------------------------------------------------------------

   13    -152.7529407270      4.71E-09  00000 Convergence criterion met
 Total energy in the final basis set = -152.75294073
 Total job time:  1085.55s(wall), 1045.25s(cpu)
        *  Thank you very much for using Q-Chem.  Have a nice day.  *
