 Q-Chem 5.0, Q-Chem, Inc., Pleasanton, CA (2017)
 Q-Chem 5.0.2 for Intel X86 EM64T Linux

User input:
--------------------------------------------------------------
$rem
AIMD_STEPS                    400
FOCK_EXTRAP_POINTS            12
MAX_SCF_CYCLES                100
BASIS                         sto-3g
AIMD_INIT_VELOC               thermal
FOCK_EXTRAP_ORDER             6
AIMD_TEMP                     400
AIMD_METHOD                   bomd
TIME_STEP                     20
METHOD                        hf
JOBTYPE                       aimd
$end

$molecule
0 1
C    4.06325    2.13007    0.82391
C    3.28176    1.06944    0.75373
H    3.87739    3.20011    0.77422
H    4.74859    1.86108    1.60312
C    1.70295    1.44567    0.85994
C    0.15642    1.08786    0.31911
H    0.31658    -0.10111    0.78057
H    -1.26550    1.27894    0.49264
H    2.57502    0.23225    0.62917
H    1.44288    2.48721    0.72350
$end

--------------------------------------------------------------

   17    -152.4846547080      1.92e-09  Convergence criterion met
 Total energy in the final basis set =     -152.4846547080

                    Orbital Energies (a.u.)
 --------------------------------------------------------------

 Alpha MOs
 -- Occupied --
-11.028 -11.023 -11.020 -10.984  -1.016  -0.884  -0.772  -0.661
 -0.596  -0.544  -0.445  -0.404  -0.316  -0.281  -0.222

          Ground-State Mulliken Net Atomic Charges

     Atom                 Charge (a.u.)
  ----------------------------------------
      1 C                    -0.138704
      2 C                    -0.099489
      3 H                     0.075290
      4 H                     0.078406
      5 C                    -0.125896
      6 C                    -0.038518
      7 H                    -0.026835
      8 H                     0.050707
      9 H                     0.199488
     10 H                     0.025551
  ----------------------------------------
  Sum of atomic charges =    -0.000000

                    Cartesian Multipole Moments
 -----------------------------------------------------------------
    Charge (ESU x 10^10)
                 0.0000
    Dipole Moment (Debye)
         X      -0.7664      Y      -0.0025      Z       0.1873
       Tot       0.7889
    Quadrupole Moments (Debye-Ang)
        XX     -26.1231     XY      -0.5121     YY     -23.2980
        XZ       0.1733     YZ       0.6951     ZZ     -24.7279

   17    -152.4871061507      1.88E-09  00000 Convergence criterion met
 Total energy in the final basis set = -152.48710615
   16    -152.5024276876      9.66E-09  00000 Convergence criterion met
 Total energy in the final basis set = -152.50242769
   16    -152.5302368237      7.85E-09  00000 Convergence criterion met
 Total energy in the final basis set = -152.53023682
   16    -152.5695133246      5.74E-09  00000 Convergence criterion met
 Total energy in the final basis set = -152.56951332
   16    -152.6179419955      3.83E-09  00000 Convergence criterion met
 Total energy in the final basis set = -152.61794200
   16    -152.6710458035      2.43E-09  00000 Convergence criterion met
 Total energy in the final basis set = -152.67104580
   15    -152.7216980243      6.25E-09  00000 Convergence criterion met
 Total energy in the final basis set = -152.74525433
   14    -152.7294478884      3.68E-09  00000 Convergence criterion met
 Total energy in the final basis set = -152.72944789
   14    -152.7184015271      2.37E-09  00000 Convergence criterion met
 Total energy in the final basis set = -152.71840153
   14    -152.7124248460      2.66E-09  00000 Convergence criterion met
 Total energy in the final basis set = -152.71242485
   13    -152.7096984716      4.35E-09  00000 Convergence criterion met
 Total energy in the final basis set = -152.70969847
   13    -152.7067604152      2.63E-09  00000 Convergence criterion met
 Total energy in the final basis set = -152.70676042
   12    -152.7008633439      8.51E-09  00000 Convergence criterion met
 Total energy in the final basis set = -152.70086334

             Standard Nuclear Orientation (Angstroms)
    I     Atom           X                Y                Z
 ----------------------------------------------------------------
    1      C       3.5792990321     2.2252389014     1.5903707613
    2      C       3.0735850050     1.4538810170     0.6879832886
    3      H       3.4835087044     2.9289542849     2.4388975705
    4      H       4.2798803589     2.8986906261     1.0417068832
    5      C       1.6320782538     1.4393500991     0.7001277141
    6      C       0.7734530335     0.5355335890    -0.1213149765
    7      H       0.5916228139    -0.0990528470    -0.8209468310
    8      H      -0.2522509181     1.1476706531    -0.1566496023
    9      H       4.0131394544     0.5750019666    -0.0398073700
   10      H       1.3170274028     2.4482834598     1.3436654111
 ----------------------------------------------------------------

   12    -152.6935176988      5.98E-09  00000 Convergence criterion met
 Total energy in the final basis set = -152.69351770
 Total job time:  1048.75s(wall), 1009.54s(cpu)
        *  Thank you very much for using Q-Chem.  Have a nice day.  *
