 Q-Chem 5.0, Q-Chem, Inc., Pleasanton, CA (2017)
 Q-Chem 5.0.2 for Intel X86 EM64T Linux

User input:
--------------------------------------------------------------
$rem
AIMD_STEPS                    400
FOCK_EXTRAP_POINTS            12
MAX_SCF_CYCLES                100
BASIS                         sto-3g
AIMD_INIT_VELOC               thermal
FOCK_EXTRAP_ORDER             6
AIMD_TEMP                     400
AIMD_METHOD                   bomd
TIME_STEP                     20
METHOD                        hf
JOBTYPE                       aimd
$end

$molecule
0 1
C    5.32913    -1.02468    -0.27300
C    4.28556    -0.06484    -0.15210
H    6.20641    -0.82871    0.38171
H    5.81956    -1.65468    -1.19487
C    3.24443    -0.62608    -1.17202
C    1.90582    0.76670    -1.20900
H    1.13568    0.32663    -1.83021
H    1.72358    1.54442    -0.39457
H    4.38618    0.85023    0.34045
H    3.45627    -1.47542    -1.97513
$end

--------------------------------------------------------------

   17    -152.6600652462      7.46e-09  Convergence criterion met
 Total energy in the final basis set =     -152.6600652462

                    Orbital Energies (a.u.)
 --------------------------------------------------------------

 Alpha MOs
 -- Occupied --
-11.032 -11.016 -11.010 -10.975  -0.978  -0.824  -0.748  -0.706
 -0.550  -0.521  -0.491  -0.460  -0.325  -0.313  -0.158

          Ground-State Mulliken Net Atomic Charges

     Atom                 Charge (a.u.)
  ----------------------------------------
      1 C                    -0.100553
      2 C                    -0.078835
      3 H                     0.024168
      4 H                     0.056359
      5 C                    -0.023243
      6 C                    -0.129047
      7 H                     0.039886
      8 H                     0.048743
      9 H                     0.096325
     10 H                     0.066199
  ----------------------------------------
  Sum of atomic charges =    -0.000000

                    Cartesian Multipole Moments
 -----------------------------------------------------------------
    Charge (ESU x 10^10)
                 0.0000
    Dipole Moment (Debye)
         X       0.4126      Y      -0.2269      Z      -0.0217
       Tot       0.4714
    Quadrupole Moments (Debye-Ang)
        XX     -20.2236     XY      -1.6844     YY     -22.6959
        XZ      -1.1548     YZ       2.8346     ZZ     -23.5933

   17    -152.6608056004      7.41E-09  00000 Convergence criterion met
 Total energy in the final basis set = -152.66080560
   17    -152.6685267992      6.44E-09  00000 Convergence criterion met
 Total energy in the final basis set = -152.66852680
   17    -152.6826043980      4.91E-09  00000 Convergence criterion met
 Total energy in the final basis set = -152.68260440
   17    -152.7016488875      3.32E-09  00000 Convergence criterion met
 Total energy in the final basis set = -152.70164889
   17    -152.7237544785      2.06E-09  00000 Convergence criterion met
 Total energy in the final basis set = -152.72375448
   16    -152.7469970384      6.73E-09  00000 Convergence criterion met
 Total energy in the final basis set = -152.74699704
   16    -152.7702147873      4.27E-09  00000 Convergence criterion met
 Total energy in the final basis set = -152.86086988
   12    -152.8752302131      4.18E-09  00000 Convergence criterion met
 Total energy in the final basis set = -152.87523021
   12    -152.8790886833      3.62E-09  00000 Convergence criterion met
 Total energy in the final basis set = -152.87908868
   12    -152.8725721138      6.15E-09  00000 Convergence criterion met
 Total energy in the final basis set = -152.87257211
   12    -152.8583694181      7.30E-09  00000 Convergence criterion met
 Total energy in the final basis set = -152.85836942
   12    -152.8406291056      6.95E-09  00000 Convergence criterion met
 Total energy in the final basis set = -152.84062911
   12    -152.8248849049      3.58E-09  00000 Convergence criterion met
 Total energy in the final basis set = -152.82488490

             Standard Nuclear Orientation (Angstroms)
    I     Atom           X                Y                Z
 ----------------------------------------------------------------
    1      C       5.2271235273    -0.9586753001     0.3119989820
    2      C       4.6122030704    -0.1150403798    -0.6902639505
    3      H       6.1725219587    -0.5274815165     0.6543130309
    4      H       5.0163061917    -1.6432670411     1.1101393132
    5      C       2.8997949925    -0.1850246332    -0.7872474504
    6      C       2.0965724422     0.3364258970    -1.7159650243
    7      H       0.9263239947     0.4604577780    -1.6877741857
    8      H       2.5824126358     0.8414460876    -2.4360415806
    9      H       5.2084060246     0.1765512691    -1.3787202410
   10      H       1.9792572043    -0.8617849926    -0.0372725861
 ----------------------------------------------------------------

   12    -152.8162671347      5.89E-09  00000 Convergence criterion met
 Total energy in the final basis set = -152.81626713
 Total job time:  661.59s(wall), 657.98s(cpu)
        *  Thank you very much for using Q-Chem.  Have a nice day.  *
