 Q-Chem 5.0, Q-Chem, Inc., Pleasanton, CA (2017)
 Q-Chem 5.0.2 for Intel X86 EM64T Linux

User input:
--------------------------------------------------------------
$rem
AIMD_STEPS                    400
FOCK_EXTRAP_POINTS            12
MAX_SCF_CYCLES                100
BASIS                         sto-3g
AIMD_INIT_VELOC               thermal
FOCK_EXTRAP_ORDER             6
AIMD_TEMP                     400
AIMD_METHOD                   bomd
TIME_STEP                     20
METHOD                        hf
JOBTYPE                       aimd
$end

$molecule
0 1
C    5.51953    -1.37242    -1.12150
C    4.43410    -0.62901    -1.36549
H    6.32376    -0.98562    -0.50373
H    5.63175    -2.37794    -1.51393
C    3.33456    -1.09110    -2.17500
C    2.19963    -0.39791    -2.32440
H    1.39564    -0.78517    -2.94218
H    2.03593    0.55571    -1.83302
H    4.36868    0.36920    -0.93775
H    3.44126    -2.04760    -2.68237
$end

--------------------------------------------------------------

   11    -153.0163014491      3.10e-09  Convergence criterion met
 Total energy in the final basis set =     -153.0163014491

                    Orbital Energies (a.u.)
 --------------------------------------------------------------

 Alpha MOs
 -- Occupied --
-11.030 -11.030 -11.016 -11.016  -1.036  -0.942  -0.772  -0.708
 -0.591  -0.591  -0.499  -0.491  -0.443  -0.398  -0.261

          Ground-State Mulliken Net Atomic Charges

     Atom                 Charge (a.u.)
  ----------------------------------------
      1 C                    -0.124641
      2 C                    -0.059627
      3 H                     0.060914
      4 H                     0.060795
      5 C                    -0.059584
      6 C                    -0.124667
      7 H                     0.060920
      8 H                     0.060767
      9 H                     0.062584
     10 H                     0.062540
  ----------------------------------------
  Sum of atomic charges =    -0.000000

                    Cartesian Multipole Moments
 -----------------------------------------------------------------
    Charge (ESU x 10^10)
                -0.0000
    Dipole Moment (Debye)
         X      -0.0035      Y      -0.0040      Z       0.0077
       Tot       0.0094
    Quadrupole Moments (Debye-Ang)
        XX     -23.1583     XY      -0.4616     YY     -22.6227
        XZ       0.8393     YZ       1.0854     ZZ     -24.1872

   11    -153.0166083563      8.57E-09  00000 Convergence criterion met
 Total energy in the final basis set = -153.01660836
   12    -153.0161530252      1.97E-09  00000 Convergence criterion met
 Total energy in the final basis set = -153.01615303
   12    -153.0152032038      2.06E-09  00000 Convergence criterion met
 Total energy in the final basis set = -153.01520320
   11    -153.0140892233      9.12E-09  00000 Convergence criterion met
 Total energy in the final basis set = -153.01408922
   11    -153.0130605561      7.41E-09  00000 Convergence criterion met
 Total energy in the final basis set = -153.01306056
   11    -153.0121994271      5.42E-09  00000 Convergence criterion met
 Total energy in the final basis set = -153.01219943
   11    -153.0114156549      4.14E-09  00000 Convergence criterion met
 Total energy in the final basis set = -153.00905953
    9    -153.0101522097      4.09E-09  00000 Convergence criterion met
 Total energy in the final basis set = -153.01015221
    9    -153.0111233256      2.89E-09  00000 Convergence criterion met
 Total energy in the final basis set = -153.01112333
    9    -153.0116344134      2.44E-09  00000 Convergence criterion met
 Total energy in the final basis set = -153.01163441
    8    -153.0115813999      7.34E-09  00000 Convergence criterion met
 Total energy in the final basis set = -153.01158140
    9    -153.0111158557      4.83E-09  00000 Convergence criterion met
 Total energy in the final basis set = -153.01111586
    9    -153.0105628614      4.43E-09  00000 Convergence criterion met
 Total energy in the final basis set = -153.01056286

             Standard Nuclear Orientation (Angstroms)
    I     Atom           X                Y                Z
 ----------------------------------------------------------------
    1      C       5.6263204798    -0.4079612956    -2.0003219967
    2      C       4.4375356049    -0.5238386954    -1.4045993092
    3      H       6.4349448407     0.1814807943    -1.5753221992
    4      H       5.8451593383    -0.8484766132    -3.0093052247
    5      C       3.3138670196    -1.2380986310    -2.0877531731
    6      C       2.1020816702    -1.3257224043    -1.4888006763
    7      H       1.2061126100    -1.9001266221    -1.8594136849
    8      H       1.9868600658    -0.8474309657    -0.5398337797
    9      H       4.2831349587    -0.1128404913    -0.4207991667
   10      H       3.5362436337    -1.6823368130    -3.0668258701
 ----------------------------------------------------------------

    8    -153.0102883113      9.94E-09  00000 Convergence criterion met
 Total energy in the final basis set = -153.01028831
 Total job time:  708.49s(wall), 691.66s(cpu)
        *  Thank you very much for using Q-Chem.  Have a nice day.  *
