 Q-Chem 5.0, Q-Chem, Inc., Pleasanton, CA (2017)
 Q-Chem 5.0.2 for Intel X86 EM64T Linux

User input:
--------------------------------------------------------------
$rem
AIMD_STEPS                    400
FOCK_EXTRAP_POINTS            12
MAX_SCF_CYCLES                100
BASIS                         sto-3g
AIMD_INIT_VELOC               thermal
FOCK_EXTRAP_ORDER             6
AIMD_TEMP                     400
AIMD_METHOD                   bomd
TIME_STEP                     20
METHOD                        hf
JOBTYPE                       aimd
$end

$molecule
0 1
C    5.35102    -0.89393    -0.59185
C    4.34003    -0.02581    -0.71219
H    6.27291    -0.60008    -0.10005
H    5.28753    -1.91089    -0.96529
C    3.09262    -0.36040    -1.35253
C    2.04771    0.47471    -1.39140
H    1.12608    0.18028    -1.88332
H    2.07595    1.45775    -0.93260
H    4.45451    0.97924    -0.31161
H    3.00629    -1.33820    -1.82178
$end

--------------------------------------------------------------

   11    -153.0163736807      3.21e-09  Convergence criterion met
 Total energy in the final basis set =     -153.0163736807

                    Orbital Energies (a.u.)
 --------------------------------------------------------------

 Alpha MOs
 -- Occupied --
-11.030 -11.030 -11.016 -11.016  -1.036  -0.942  -0.772  -0.708
 -0.591  -0.591  -0.499  -0.491  -0.443  -0.398  -0.261

          Ground-State Mulliken Net Atomic Charges

     Atom                 Charge (a.u.)
  ----------------------------------------
      1 C                    -0.124620
      2 C                    -0.059624
      3 H                     0.060916
      4 H                     0.060794
      5 C                    -0.059576
      6 C                    -0.124652
      7 H                     0.060921
      8 H                     0.060767
      9 H                     0.062560
     10 H                     0.062513
  ----------------------------------------
  Sum of atomic charges =    -0.000000

                    Cartesian Multipole Moments
 -----------------------------------------------------------------
    Charge (ESU x 10^10)
                -0.0000
    Dipole Moment (Debye)
         X      -0.0022      Y      -0.0028      Z       0.0066
       Tot       0.0075
    Quadrupole Moments (Debye-Ang)
        XX     -23.0190     XY      -0.2312     YY     -22.4745
        XZ       0.8112     YZ       0.9733     ZZ     -24.4554

   12    -153.0165789594      1.79E-09  00000 Convergence criterion met
 Total energy in the final basis set = -153.01657896
   12    -153.0159616882      1.90E-09  00000 Convergence criterion met
 Total energy in the final basis set = -153.01596169
   12    -153.0148600610      1.98E-09  00000 Convergence criterion met
 Total energy in the final basis set = -153.01486006
   12    -153.0136843047      2.00E-09  00000 Convergence criterion met
 Total energy in the final basis set = -153.01368430
   11    -153.0127286808      9.76E-09  00000 Convergence criterion met
 Total energy in the final basis set = -153.01272868
   11    -153.0120562702      8.22E-09  00000 Convergence criterion met
 Total energy in the final basis set = -153.01205627
   11    -153.0115021876      6.11E-09  00000 Convergence criterion met
 Total energy in the final basis set = -153.00897616
    9    -153.0102322052      5.64E-09  00000 Convergence criterion met
 Total energy in the final basis set = -153.01023221
    9    -153.0113547940      4.31E-09  00000 Convergence criterion met
 Total energy in the final basis set = -153.01135479
    9    -153.0119396101      2.66E-09  00000 Convergence criterion met
 Total energy in the final basis set = -153.01193961
    8    -153.0118383940      7.88E-09  00000 Convergence criterion met
 Total energy in the final basis set = -153.01183839
    9    -153.0112067358      4.90E-09  00000 Convergence criterion met
 Total energy in the final basis set = -153.01120674
    9    -153.0104269845      5.23E-09  00000 Convergence criterion met
 Total energy in the final basis set = -153.01042698

             Standard Nuclear Orientation (Angstroms)
    I     Atom           X                Y                Z
 ----------------------------------------------------------------
    1      C       5.4464002573    -0.0236626901    -1.5604098944
    2      C       4.3704889897     0.0575478285    -0.7758666595
    3      H       6.4021181073     0.4283839646    -1.2841200452
    4      H       5.4159371870    -0.5021285251    -2.5777965198
    5      C       3.0505096123    -0.4727822150    -1.2478046164
    6      C       1.9557734903    -0.3670011586    -0.4587901554
    7      H       0.9416697813    -0.8066007374    -0.6571799022
    8      H       2.0784360000     0.1086667489     0.4797348126
    9      H       4.4467955384     0.4936365067     0.2048921443
   10      H       3.0360399922    -0.9482827885    -2.2408892317
 ----------------------------------------------------------------

    9    -153.0099517746      3.73E-09  00000 Convergence criterion met
 Total energy in the final basis set = -153.00995177
 Total job time:  718.98s(wall), 701.40s(cpu)
        *  Thank you very much for using Q-Chem.  Have a nice day.  *
