 Q-Chem 5.0, Q-Chem, Inc., Pleasanton, CA (2017)
 Q-Chem 5.0.2 for Intel X86 EM64T Linux

User input:
--------------------------------------------------------------
$rem
AIMD_STEPS                    400
FOCK_EXTRAP_POINTS            12
MAX_SCF_CYCLES                100
BASIS                         sto-3g
AIMD_INIT_VELOC               thermal
FOCK_EXTRAP_ORDER             6
AIMD_TEMP                     400
AIMD_METHOD                   bomd
TIME_STEP                     20
METHOD                        hf
JOBTYPE                       aimd
$end

$molecule
0 1
C    3.82646    2.01433    0.98877
C    2.75862    1.21695    0.87260
H    3.74895    3.09580    0.94105
H    4.81521    1.59170    1.13720
C    1.42234    1.72065    0.67458
C    0.35277    0.92419    0.56590
H    0.42863    -0.15701    0.62150
H    -0.63569    1.34750    0.41748
H    2.89428    0.13886    0.92877
H    1.28777    2.79855    0.61205
$end

--------------------------------------------------------------

   11    -153.0165249089      3.68e-09  Convergence criterion met
 Total energy in the final basis set =     -153.0165249089

                    Orbital Energies (a.u.)
 --------------------------------------------------------------

 Alpha MOs
 -- Occupied --
-11.031 -11.030 -11.016 -11.016  -1.036  -0.942  -0.772  -0.708
 -0.591  -0.591  -0.498  -0.491  -0.443  -0.399  -0.261

          Ground-State Mulliken Net Atomic Charges

     Atom                 Charge (a.u.)
  ----------------------------------------
      1 C                    -0.124577
      2 C                    -0.059611
      3 H                     0.060788
      4 H                     0.060919
      5 C                    -0.059562
      6 C                    -0.124609
      7 H                     0.060760
      8 H                     0.060923
      9 H                     0.062510
     10 H                     0.062460
  ----------------------------------------
  Sum of atomic charges =    -0.000000

                    Cartesian Multipole Moments
 -----------------------------------------------------------------
    Charge (ESU x 10^10)
                -0.0000
    Dipole Moment (Debye)
         X       0.0004      Y       0.0002      Z       0.0007
       Tot       0.0008
    Quadrupole Moments (Debye-Ang)
        XX     -22.7280     XY      -0.0887     YY     -22.0820
        XZ       0.3294     YZ      -0.1285     ZZ     -25.1042

   12    -153.0148897467      2.52E-09  00000 Convergence criterion met
 Total energy in the final basis set = -153.01488975
   12    -153.0127358682      4.09E-09  00000 Convergence criterion met
 Total energy in the final basis set = -153.01273587
   12    -153.0104472362      5.20E-09  00000 Convergence criterion met
 Total energy in the final basis set = -153.01044724
   12    -153.0084163295      5.79E-09  00000 Convergence criterion met
 Total energy in the final basis set = -153.00841633
   12    -153.0069382479      5.84E-09  00000 Convergence criterion met
 Total energy in the final basis set = -153.00693825
   12    -153.0061383321      5.44E-09  00000 Convergence criterion met
 Total energy in the final basis set = -153.00613833
   12    -153.0059499278      4.81E-09  00000 Convergence criterion met
 Total energy in the final basis set = -153.01262678
    9    -153.0125073278      1.84E-09  00000 Convergence criterion met
 Total energy in the final basis set = -153.01250733
    8    -153.0119792298      8.42E-09  00000 Convergence criterion met
 Total energy in the final basis set = -153.01197923
    9    -153.0109687419      5.07E-09  00000 Convergence criterion met
 Total energy in the final basis set = -153.01096874
    9    -153.0094897334      6.14E-09  00000 Convergence criterion met
 Total energy in the final basis set = -153.00948973
    9    -153.0076584604      4.93E-09  00000 Convergence criterion met
 Total energy in the final basis set = -153.00765846
    9    -153.0056753381      2.92E-09  00000 Convergence criterion met
 Total energy in the final basis set = -153.00567534

             Standard Nuclear Orientation (Angstroms)
    I     Atom           X                Y                Z
 ----------------------------------------------------------------
    1      C       3.8035101696     2.0752806275     1.1562492160
    2      C       2.7230997280     1.6657857546     0.4829539171
    3      H       3.8052428414     2.0001920927     2.2577083315
    4      H       4.7738540830     2.1596244308     0.6494114369
    5      C       1.4096938936     1.4221325451     1.0439060465
    6      C       0.4372715117     0.7611844110     0.4130211928
    7      H       0.3906422894     0.3814976356    -0.6120854554
    8      H      -0.4673981627     0.4382598542     0.9800816222
    9      H       2.7382269934     1.5962677626    -0.5966038147
   10      H       1.1392062342     1.6648977598     2.0476400934
 ----------------------------------------------------------------

    8    -153.0037771224      4.91E-09  00000 Convergence criterion met
 Total energy in the final basis set = -153.00377712
 Total job time:  739.13s(wall), 717.47s(cpu)
        *  Thank you very much for using Q-Chem.  Have a nice day.  *
