 Q-Chem 5.0, Q-Chem, Inc., Pleasanton, CA (2017)
 Q-Chem 5.0.2 for Intel X86 EM64T Linux

User input:
--------------------------------------------------------------
$rem
AIMD_STEPS                    400
FOCK_EXTRAP_POINTS            12
MAX_SCF_CYCLES                100
BASIS                         sto-3g
AIMD_INIT_VELOC               thermal
FOCK_EXTRAP_ORDER             6
AIMD_TEMP                     400
AIMD_METHOD                   bomd
TIME_STEP                     20
METHOD                        hf
JOBTYPE                       aimd
$end

$molecule
0 1
C    3.14070    -0.33008    0.23398
C    3.79376    -0.23156    -0.92903
H    3.43599    -1.01755    1.01837
H    2.27350    0.29344    0.42898
C    4.95214    -0.99176    -1.33902
C    5.64979    -1.85728    -0.59394
H    6.51181    -2.36812    -1.01201
H    5.39628    -2.08549    0.43499
H    3.42822    0.48179    -1.66705
H    5.27736    -0.81519    -2.36385
$end

--------------------------------------------------------------

   11    -153.0138732486      6.16e-09  Convergence criterion met
 Total energy in the final basis set =     -153.0138732486

                    Orbital Energies (a.u.)
 --------------------------------------------------------------

 Alpha MOs
 -- Occupied --
-11.030 -11.030 -11.018 -11.018  -1.034  -0.936  -0.795  -0.676
 -0.627  -0.558  -0.534  -0.462  -0.446  -0.396  -0.263

          Ground-State Mulliken Net Atomic Charges

     Atom                 Charge (a.u.)
  ----------------------------------------
      1 C                    -0.122820
      2 C                    -0.061133
      3 H                     0.061758
      4 H                     0.062605
      5 C                    -0.061013
      6 C                    -0.122847
      7 H                     0.062610
      8 H                     0.061704
      9 H                     0.059621
     10 H                     0.059515
  ----------------------------------------
  Sum of atomic charges =     0.000000

                    Cartesian Multipole Moments
 -----------------------------------------------------------------
    Charge (ESU x 10^10)
                 0.0000
    Dipole Moment (Debye)
         X      -0.0009      Y       0.0083      Z      -0.0157
       Tot       0.0178
    Quadrupole Moments (Debye-Ang)
        XX     -23.4330     XY      -1.1066     YY     -23.8193
        XZ      -0.6153     YZ      -0.8069     ZZ     -22.5192

   11    -153.0135339168      9.19E-09  00000 Convergence criterion met
 Total energy in the final basis set = -153.01353392
   12    -153.0129274715      2.40E-09  00000 Convergence criterion met
 Total energy in the final basis set = -153.01292747
   12    -153.0122591685      2.44E-09  00000 Convergence criterion met
 Total energy in the final basis set = -153.01225917
   12    -153.0117888028      2.32E-09  00000 Convergence criterion met
 Total energy in the final basis set = -153.01178880
   11    -153.0117039801      9.64E-09  00000 Convergence criterion met
 Total energy in the final basis set = -153.01170398
   12    -153.0120158940      1.90E-09  00000 Convergence criterion met
 Total energy in the final basis set = -153.01201589
   12    -153.0125458361      2.46E-09  00000 Convergence criterion met
 Total energy in the final basis set = -153.00888109
    8    -153.0088743560      7.06E-09  00000 Convergence criterion met
 Total energy in the final basis set = -153.00887436
    8    -153.0090645574      9.17E-09  00000 Convergence criterion met
 Total energy in the final basis set = -153.00906456
    8    -153.0092003365      4.47E-09  00000 Convergence criterion met
 Total energy in the final basis set = -153.00920034
    8    -153.0090742848      5.23E-09  00000 Convergence criterion met
 Total energy in the final basis set = -153.00907428
    7    -153.0086281528      8.55E-09  00000 Convergence criterion met
 Total energy in the final basis set = -153.00862815
    8    -153.0079890675      6.60E-09  00000 Convergence criterion met
 Total energy in the final basis set = -153.00798907

             Standard Nuclear Orientation (Angstroms)
    I     Atom           X                Y                Z
 ----------------------------------------------------------------
    1      C       3.1039981404    -0.1817764059     0.0322302303
    2      C       3.7247292034    -0.4791723394    -1.0747032270
    3      H       3.1812715826    -0.7680932461     0.9436126135
    4      H       2.2782539099     0.5039252682     0.0445621337
    5      C       4.8546214679    -1.3972172187    -1.2108382663
    6      C       5.8438123017    -1.3933102783    -0.3763374896
    7      H       6.6482350689    -2.0472674532    -0.5203113964
    8      H       5.8793180999    -0.7871210188     0.5290659755
    9      H       3.5175130653     0.0580699272    -1.9971106580
   10      H       4.9284545030    -1.9848820064    -2.1408764311
 ----------------------------------------------------------------

    8    -153.0074091360      9.63E-09  00000 Convergence criterion met
 Total energy in the final basis set = -153.00740914
 Total job time:  632.66s(wall), 620.37s(cpu)
        *  Thank you very much for using Q-Chem.  Have a nice day.  *
