 Q-Chem 5.0, Q-Chem, Inc., Pleasanton, CA (2017)
 Q-Chem 5.0.2 for Intel X86 EM64T Linux

User input:
--------------------------------------------------------------
$rem
AIMD_STEPS                    400
FOCK_EXTRAP_POINTS            12
MAX_SCF_CYCLES                100
BASIS                         sto-3g
AIMD_INIT_VELOC               thermal
FOCK_EXTRAP_ORDER             6
AIMD_TEMP                     400
AIMD_METHOD                   bomd
TIME_STEP                     20
METHOD                        hf
JOBTYPE                       aimd
$end

$molecule
0 1
C    4.55565    0.06376    0.52602
C    3.53603    0.85052    -0.16780
H    5.28465    1.31756    0.78717
H    5.18848    -1.20415    0.35045
C    2.27409    -0.07831    0.14134
C    0.82047    1.19212    -0.63454
H    0.99141    2.08070    -1.39667
H    -0.20140    0.30044    -0.44289
H    3.60257    1.73308    -1.06844
H    2.33540    -1.13929    0.69424
$end

--------------------------------------------------------------

   25    -152.2860053285      2.48e-09  Convergence criterion met
 Total energy in the final basis set =     -152.2860053285

                    Orbital Energies (a.u.)
 --------------------------------------------------------------

 Alpha MOs
 -- Occupied --
-11.061 -11.043 -11.021 -10.874  -0.970  -0.770  -0.670  -0.654
 -0.508  -0.496  -0.423  -0.394  -0.288  -0.237  -0.117

          Ground-State Mulliken Net Atomic Charges

     Atom                 Charge (a.u.)
  ----------------------------------------
      1 C                    -0.024844
      2 C                    -0.054263
      3 H                    -0.020302
      4 H                     0.121838
      5 C                    -0.022276
      6 C                    -0.173028
      7 H                     0.034773
      8 H                    -0.021286
      9 H                     0.103112
     10 H                     0.056275
  ----------------------------------------
  Sum of atomic charges =    -0.000000

                    Cartesian Multipole Moments
 -----------------------------------------------------------------
    Charge (ESU x 10^10)
                -0.0000
    Dipole Moment (Debye)
         X       3.7528      Y      -1.9320      Z      -0.0867
       Tot       4.2218
    Quadrupole Moments (Debye-Ang)
        XX      -6.8788     XY      -3.7918     YY     -22.3432
        XZ      -0.7160     YZ      -2.5451     ZZ     -23.3942

   25    -152.2965920812      3.13E-09  00000 Convergence criterion met
 Total energy in the final basis set = -152.29659208
   25    -152.3265196073      2.10E-09  00000 Convergence criterion met
 Total energy in the final basis set = -152.32651961
   24    -152.3726318875      1.18E-09  00000 Convergence criterion met
 Total energy in the final basis set = -152.37263189
   22    -152.4298839576      9.76E-09  00000 Convergence criterion met
 Total energy in the final basis set = -152.42988396
   21    -152.4907527322      7.42E-09  00000 Convergence criterion met
 Total energy in the final basis set = -152.49075273
   21    -152.5445134320      2.87E-09  00000 Convergence criterion met
 Total energy in the final basis set = -152.54451343
   21    -152.5773113308      4.55E-10  00000 Convergence criterion met
 Total energy in the final basis set = -152.63599829
   13    -152.6158837010      6.47E-09  00000 Convergence criterion met
 Total energy in the final basis set = -152.61588370
   14    -152.6047532404      4.49E-09  00000 Convergence criterion met
 Total energy in the final basis set = -152.60475324
   14    -152.5936752784      2.98E-09  00000 Convergence criterion met
 Total energy in the final basis set = -152.59367528
   13    -152.5775014814      9.05E-09  00000 Convergence criterion met
 Total energy in the final basis set = -152.57750148
   14    -152.5575025328      2.00E-09  00000 Convergence criterion met
 Total energy in the final basis set = -152.55750253
   13    -152.5372985626      5.60E-09  00000 Convergence criterion met
 Total energy in the final basis set = -152.53729856

             Standard Nuclear Orientation (Angstroms)
    I     Atom           X                Y                Z
 ----------------------------------------------------------------
    1      C       4.6510255511     0.6765736935     0.8817540728
    2      C       3.7133058870     0.1610490247    -0.1133030782
    3      H       5.4909507479    -0.1311289672     1.0585002438
    4      H       5.1262174098     1.8532623381     0.5778790349
    5      C       1.9649509325     0.6634773372    -0.8201289950
    6      C       0.8855838432     0.6556968227    -0.1597286349
    7      H       1.3099369352     0.5225835945     0.9799952050
    8      H       0.2221079082    -0.1606182138    -0.4657985681
    9      H       3.8376244939    -0.8474483504    -0.3243355471
   10      H       0.8734267549     0.3192064644    -1.9923853330
 ----------------------------------------------------------------

   13    -152.5190999385      9.76E-09  00000 Convergence criterion met
 Total energy in the final basis set = -152.51909994
 Total job time:  1106.01s(wall), 1071.38s(cpu)
        *  Thank you very much for using Q-Chem.  Have a nice day.  *
