 Q-Chem 5.0, Q-Chem, Inc., Pleasanton, CA (2017)
 Q-Chem 5.0.2 for Intel X86 EM64T Linux

User input:
--------------------------------------------------------------
$rem
AIMD_STEPS                    400
FOCK_EXTRAP_POINTS            12
MAX_SCF_CYCLES                100
BASIS                         sto-3g
AIMD_INIT_VELOC               thermal
FOCK_EXTRAP_ORDER             6
AIMD_TEMP                     400
AIMD_METHOD                   bomd
TIME_STEP                     20
METHOD                        hf
JOBTYPE                       aimd
$end

$molecule
0 1
C    4.59782    0.26917    0.33148
C    3.48375    0.83300    -0.14859
H    5.54890    0.78845    0.26750
H    4.59614    -0.71199    0.79536
C    2.19371    0.19174    -0.09177
C    1.07962    0.75344    -0.57483
H    1.08139    1.73299    -1.04209
H    0.12885    0.23364    -0.51052
H    3.54348    1.81929    -0.60415
H    2.13370    -0.79330    0.36649
$end

--------------------------------------------------------------

   11    -153.0165313545      3.67e-09  Convergence criterion met
 Total energy in the final basis set =     -153.0165313545

                    Orbital Energies (a.u.)
 --------------------------------------------------------------

 Alpha MOs
 -- Occupied --
-11.031 -11.030 -11.016 -11.016  -1.036  -0.942  -0.772  -0.708
 -0.591  -0.591  -0.498  -0.491  -0.443  -0.399  -0.261

          Ground-State Mulliken Net Atomic Charges

     Atom                 Charge (a.u.)
  ----------------------------------------
      1 C                    -0.124580
      2 C                    -0.059606
      3 H                     0.060919
      4 H                     0.060788
      5 C                    -0.059561
      6 C                    -0.124609
      7 H                     0.060761
      8 H                     0.060923
      9 H                     0.062505
     10 H                     0.062459
  ----------------------------------------
  Sum of atomic charges =    -0.000000

                    Cartesian Multipole Moments
 -----------------------------------------------------------------
    Charge (ESU x 10^10)
                -0.0000
    Dipole Moment (Debye)
         X       0.0005      Y      -0.0002      Z      -0.0001
       Tot       0.0005
    Quadrupole Moments (Debye-Ang)
        XX     -22.7667     XY       0.2305     YY     -22.6137
        XZ       0.3482     YZ      -1.1631     ZZ     -24.5343

   11    -153.0159500759      6.11E-09  00000 Convergence criterion met
 Total energy in the final basis set = -153.01595008
   11    -153.0143895650      7.58E-09  00000 Convergence criterion met
 Total energy in the final basis set = -153.01438956
   11    -153.0125445640      7.89E-09  00000 Convergence criterion met
 Total energy in the final basis set = -153.01254456
   11    -153.0111602307      7.22E-09  00000 Convergence criterion met
 Total energy in the final basis set = -153.01116023
   11    -153.0107229900      5.85E-09  00000 Convergence criterion met
 Total energy in the final basis set = -153.01072299
   11    -153.0112712159      5.90E-09  00000 Convergence criterion met
 Total energy in the final basis set = -153.01127122
   11    -153.0123962164      8.96E-09  00000 Convergence criterion met
 Total energy in the final basis set = -153.00979828
    9    -153.0097222952      4.04E-09  00000 Convergence criterion met
 Total energy in the final basis set = -153.00972230
    9    -153.0106631226      7.29E-09  00000 Convergence criterion met
 Total energy in the final basis set = -153.01066312
    9    -153.0119335710      5.65E-09  00000 Convergence criterion met
 Total energy in the final basis set = -153.01193357
    9    -153.0127874518      6.62E-09  00000 Convergence criterion met
 Total energy in the final basis set = -153.01278745
    9    -153.0127626137      7.56E-09  00000 Convergence criterion met
 Total energy in the final basis set = -153.01276261
    9    -153.0118231932      7.52E-09  00000 Convergence criterion met
 Total energy in the final basis set = -153.01182319

             Standard Nuclear Orientation (Angstroms)
    I     Atom           X                Y                Z
 ----------------------------------------------------------------
    1      C       4.5278246741    -0.0210067912     0.2094594893
    2      C       3.5256376952     0.6554912128    -0.3069105872
    3      H       5.5933703153     0.1880065201    -0.1097022694
    4      H       4.3394886937    -0.8615130350     0.8309499261
    5      C       2.1691206470     0.3333420278     0.0224109936
    6      C       1.1311369785     1.0802102253    -0.3970594431
    7      H       1.2710419765     1.9296719159    -1.0477301721
    8      H       0.1103725755     0.8194100683    -0.2191202715
    9      H       3.7573386580     1.5190639874    -0.9488149688
   10      H       1.9748978308    -0.5337355354     0.6287647891
 ----------------------------------------------------------------

    9    -153.0103288594      7.94E-09  00000 Convergence criterion met
 Total energy in the final basis set = -153.01032886
 Total job time:  802.60s(wall), 771.82s(cpu)
        *  Thank you very much for using Q-Chem.  Have a nice day.  *
