 Q-Chem 5.0, Q-Chem, Inc., Pleasanton, CA (2017)
 Q-Chem 5.0.2 for Intel X86 EM64T Linux

User input:
--------------------------------------------------------------
$rem
AIMD_STEPS                    400
FOCK_EXTRAP_POINTS            12
MAX_SCF_CYCLES                100
BASIS                         sto-3g
AIMD_INIT_VELOC               thermal
FOCK_EXTRAP_ORDER             6
AIMD_TEMP                     400
AIMD_METHOD                   bomd
TIME_STEP                     20
METHOD                        hf
JOBTYPE                       aimd
$end

$molecule
0 1
C    3.88796    -0.78675    -0.73885
C    4.32777    0.24646    -1.65961
H    3.23907    -2.09099    -1.05760
H    4.22100    -0.68063    0.82737
C    4.72505    0.58228    -3.26352
C    3.20559    -0.05566    -3.54693
H    3.63596    0.02542    -4.52148
H    2.38951    -0.35589    -3.32784
H    5.14891    1.11220    -0.52430
H    5.58408    0.80566    -3.91104
$end

--------------------------------------------------------------

   17    -152.2989751004      4.13e-09  Convergence criterion met
 Total energy in the final basis set =     -152.2989751004

                    Orbital Energies (a.u.)
 --------------------------------------------------------------

 Alpha MOs
 -- Occupied --
-11.052 -11.030 -11.025 -11.019  -0.962  -0.864  -0.786  -0.619
 -0.601  -0.493  -0.410  -0.363  -0.309  -0.229  -0.218

          Ground-State Mulliken Net Atomic Charges

     Atom                 Charge (a.u.)
  ----------------------------------------
      1 C                    -0.030033
      2 C                     0.006622
      3 H                    -0.000887
      4 H                     0.022276
      5 C                    -0.037367
      6 C                    -0.187109
      7 H                     0.080992
      8 H                     0.117932
      9 H                    -0.089042
     10 H                     0.116617
  ----------------------------------------
  Sum of atomic charges =     0.000000

                    Cartesian Multipole Moments
 -----------------------------------------------------------------
    Charge (ESU x 10^10)
                 0.0000
    Dipole Moment (Debye)
         X       0.0673      Y      -0.3676      Z      -1.6959
       Tot       1.7366
    Quadrupole Moments (Debye-Ang)
        XX     -22.3074     XY      -0.4838     YY     -24.9822
        XZ      -8.7992     YZ      -0.4737     ZZ     -14.3876

   17    -152.3276126897      3.45E-09  00000 Convergence criterion met
 Total energy in the final basis set = -152.32761269
   17    -152.3813095880      2.33E-09  00000 Convergence criterion met
 Total energy in the final basis set = -152.38130959
   16    -152.4465411159      8.11E-09  00000 Convergence criterion met
 Total energy in the final basis set = -152.44654112
   16    -152.5192408215      4.23E-09  00000 Convergence criterion met
 Total energy in the final basis set = -152.51924082
   15    -152.5984746131      9.44E-09  00000 Convergence criterion met
 Total energy in the final basis set = -152.59847461
   15    -152.6790771979      3.69E-09  00000 Convergence criterion met
 Total energy in the final basis set = -152.67907720
   14    -152.7467291552      7.50E-09  00000 Convergence criterion met
 Total energy in the final basis set = -152.63070561
   14    -152.6067551345      8.80E-09  00000 Convergence criterion met
 Total energy in the final basis set = -152.60675513
   15    -152.5848065803      1.95E-09  00000 Convergence criterion met
 Total energy in the final basis set = -152.58480658
   14    -152.5615878454      5.54E-09  00000 Convergence criterion met
 Total energy in the final basis set = -152.56158785
   15    -152.5400114772      2.44E-09  00000 Convergence criterion met
 Total energy in the final basis set = -152.54001148
   14    -152.5247585294      8.31E-09  00000 Convergence criterion met
 Total energy in the final basis set = -152.52475853
   14    -152.5172933336      4.32E-09  00000 Convergence criterion met
 Total energy in the final basis set = -152.51729333

             Standard Nuclear Orientation (Angstroms)
    I     Atom           X                Y                Z
 ----------------------------------------------------------------
    1      C       4.0087951663    -0.2633450286    -0.5124086225
    2      C       4.0136247121     0.3674605997    -1.7226831956
    3      H       3.2197123768    -1.3812303263    -0.3390391509
    4      H       5.2440442733    -0.3321549349    -0.3430328171
    5      C       3.5144921127     0.1217477876    -3.0344096185
    6      C       4.5413591766    -0.2999107783    -3.7039827346
    7      H       3.4593251225    -0.3516037531    -5.1206117265
    8      H       5.7669680690    -0.2154217892    -3.9696593710
    9      H       4.7671632831     1.2389700144    -2.3472303059
   10      H       2.5721540082     0.5761108135    -3.1984778408
 ----------------------------------------------------------------

   14    -152.5166401412      3.89E-09  00000 Convergence criterion met
 Total energy in the final basis set = -152.51664014
 Total job time:  1025.83s(wall), 1005.05s(cpu)
        *  Thank you very much for using Q-Chem.  Have a nice day.  *
