 Q-Chem 5.0, Q-Chem, Inc., Pleasanton, CA (2017)
 Q-Chem 5.0.2 for Intel X86 EM64T Linux

User input:
--------------------------------------------------------------
$rem
AIMD_STEPS                    400
FOCK_EXTRAP_POINTS            12
MAX_SCF_CYCLES                100
BASIS                         sto-3g
AIMD_INIT_VELOC               thermal
FOCK_EXTRAP_ORDER             6
AIMD_TEMP                     400
AIMD_METHOD                   bomd
TIME_STEP                     20
METHOD                        hf
JOBTYPE                       aimd
$end

$molecule
0 1
C    5.34812    0.62518    0.04165
C    4.06932    0.29816    -0.17576
H    5.97710    0.00015    0.66777
H    5.79997    1.51237    -0.39032
C    3.18693    1.08902    -0.99708
C    1.90582    0.76670    -1.20900
H    1.45135    -0.11616    -0.77094
H    1.27738    1.39215    -1.83522
H    3.66785    -0.60291    0.28332
H    3.59033    1.98669    -1.46115
$end

--------------------------------------------------------------

   11    -153.0165303096      3.67e-09  Convergence criterion met
 Total energy in the final basis set =     -153.0165303096

                    Orbital Energies (a.u.)
 --------------------------------------------------------------

 Alpha MOs
 -- Occupied --
-11.031 -11.030 -11.016 -11.016  -1.036  -0.942  -0.772  -0.708
 -0.591  -0.591  -0.498  -0.491  -0.443  -0.399  -0.261

          Ground-State Mulliken Net Atomic Charges

     Atom                 Charge (a.u.)
  ----------------------------------------
      1 C                    -0.124577
      2 C                    -0.059608
      3 H                     0.060918
      4 H                     0.060788
      5 C                    -0.059562
      6 C                    -0.124608
      7 H                     0.060758
      8 H                     0.060923
      9 H                     0.062507
     10 H                     0.062459
  ----------------------------------------
  Sum of atomic charges =    -0.000000

                    Cartesian Multipole Moments
 -----------------------------------------------------------------
    Charge (ESU x 10^10)
                -0.0000
    Dipole Moment (Debye)
         X       0.0003      Y       0.0003      Z       0.0007
       Tot       0.0008
    Quadrupole Moments (Debye-Ang)
        XX     -22.8066     XY       0.5333     YY     -22.9515
        XZ       0.4373     YZ      -1.2822     ZZ     -24.1576

   11    -153.0155851681      8.12E-09  00000 Convergence criterion met
 Total energy in the final basis set = -153.01558517
   12    -153.0134579325      3.34E-09  00000 Convergence criterion met
 Total energy in the final basis set = -153.01345793
   12    -153.0109052357      4.20E-09  00000 Convergence criterion met
 Total energy in the final basis set = -153.01090524
   12    -153.0088692832      4.63E-09  00000 Convergence criterion met
 Total energy in the final basis set = -153.00886928
   12    -153.0080578680      4.57E-09  00000 Convergence criterion met
 Total energy in the final basis set = -153.00805787
   12    -153.0086103657      3.01E-09  00000 Convergence criterion met
 Total energy in the final basis set = -153.00861037
   12    -153.0100410030      3.97E-09  00000 Convergence criterion met
 Total energy in the final basis set = -153.00831701
    9    -153.0090815227      5.60E-09  00000 Convergence criterion met
 Total energy in the final basis set = -153.00908152
    9    -153.0102636893      6.27E-09  00000 Convergence criterion met
 Total energy in the final basis set = -153.01026369
    9    -153.0109592744      6.49E-09  00000 Convergence criterion met
 Total energy in the final basis set = -153.01095927
    9    -153.0104744755      7.61E-09  00000 Convergence criterion met
 Total energy in the final basis set = -153.01047448
    9    -153.0086772096      7.69E-09  00000 Convergence criterion met
 Total energy in the final basis set = -153.00867721
   10    -153.0060078215      2.07E-09  00000 Convergence criterion met
 Total energy in the final basis set = -153.00600782

             Standard Nuclear Orientation (Angstroms)
    I     Atom           X                Y                Z
 ----------------------------------------------------------------
    1      C       5.3719410021     0.0595779600    -0.3030083686
    2      C       4.1101676816     0.4626328972    -0.1096793446
    3      H       5.9252088048    -0.2161754067     0.6341013794
    4      H       6.0102208252     0.1229393158    -1.1945463917
    5      C       3.1177019546     0.8768535412    -1.0850504216
    6      C       1.8905158148     1.3650193280    -0.8647625847
    7      H       1.4485078176     1.3484669363     0.1821864031
    8      H       1.3316500250     1.7146885407    -1.7003639916
    9      H       3.7345626101     0.4663552496     0.9324668123
   10      H       3.5503406021     0.9143344106    -2.0947356088
 ----------------------------------------------------------------

   10    -153.0032403501      3.86E-09  00000 Convergence criterion met
 Total energy in the final basis set = -153.00324035
 Total job time:  790.03s(wall), 762.08s(cpu)
        *  Thank you very much for using Q-Chem.  Have a nice day.  *
