 Q-Chem 5.0, Q-Chem, Inc., Pleasanton, CA (2017)
 Q-Chem 5.0.2 for Intel X86 EM64T Linux

User input:
--------------------------------------------------------------
$rem
SCF_PRINT                     1
BASIS                         6-311++g**
SCF_SAVE_MATRICES             1
SCF_CONVERGENCE               5
SCF_FINAL_PRINT               1
METHOD                        hf
JOBTYPE                       sp
$end

$molecule
0 1
C    1.037288    0.000539    -0.582102
C    -0.176487    -0.000271    0.102715
C    -0.183174    -0.000518    1.498133
C    1.01988    4e-05    2.205172
C    2.228616    0.000848    1.511505
C    2.241753    0.001096    0.118273
I    -2.004073    -0.001696    2.534377
H    1.013157    -0.000135    3.286244
H    3.159115    0.001279    2.063225
H    3.181398    0.001715    -0.416415
H    1.038283    0.000729    -1.663869
H    -1.109304    -0.000688    -0.443732
N    -4.582592278    -0.001974697    4.004623405
C    -5.432248278    1.033095303    3.443517405
C    -5.202064278    -1.306090697    3.850638405
C    -4.310611278    0.268567303    5.404935405
H    -5.229215278    0.283653303    6.011064405
H    -3.647037278    -0.497334697    5.803030405
H    -3.817378278    1.234370303    5.501577405
H    -6.408881278    1.087511303    3.948188405
H    -4.940827278    2.000098303    3.537088405
H    -5.600716278    0.834533303    2.386353405
H    -6.166829278    -1.372211697    4.376310405
H    -5.370060278    -1.508608697    2.794164405
H    -4.539891278    -2.074436697    4.246253405
$end

--------------------------------------------------------------

             Standard Nuclear Orientation (Angstroms)
    I     Atom           X                Y                Z
 ----------------------------------------------------------------
    1      C       3.9419013274     1.2036668342     0.0003587334
    2      C       2.5482758455     1.2093796114     0.0000260207
    3      C       1.8517971264     0.0001842021    -0.0001402462
    4      C       2.5472016957    -1.2096322485     0.0000224582
    5      C       3.9408290402    -1.2051610176     0.0003544961
    6      C       4.6418303166    -0.0010575207     0.0005195536
    7      I      -0.2433103287     0.0010340738    -0.0006017237
    8      H       2.0062786322    -2.1456686396    -0.0000894379
    9      H       4.4762811791    -2.1451155507     0.0004800286
   10      H       5.7229519902    -0.0015383870     0.0007688067
   11      H       4.4781912216     2.1431422203     0.0004876614
   12      H       2.0081996632     2.1458996370    -0.0000843778
   13      N      -3.2115394416    -0.0002416810     0.0001343850
   14      C      -3.6717458418     0.9077201231     1.0354800268
   15      C      -3.6740407809     0.4403389288    -1.3037661932
   16      C      -3.6682079730    -1.3516527616     0.2706566193
   17      H      -4.7664013852    -1.4236647152     0.2861087671
   18      H      -3.2889167042    -2.0259041668    -0.4954629092
   19      H      -3.2871316086    -1.6798803677     1.2362866449
   20      H      -4.7701312258     0.9525835359     1.0902774588
   21      H      -3.2907235435     0.5830576683     2.0023105351
   22      H      -3.2949508791     1.9097198131     0.8369196200
   23      H      -4.7725495879     0.4610957487    -1.3695088654
   24      H      -3.2971785596     1.4415059612    -1.5062827316
   25      H      -3.2947402165    -0.2310638082    -2.0723293542
 ----------------------------------------------------------------

    7   -7320.2987923738      8.58e-06  Convergence criterion met
 Total energy in the final basis set =    -7320.2987923738

                    Orbital Energies (a.u.)
 --------------------------------------------------------------

 Alpha MOs
 -- Occupied --
*******-180.846-169.652-169.651-169.651 -37.900 -33.088 -33.083
-33.083 -24.272 -24.270 -24.270 -24.266 -24.266 -15.556 -11.273
-11.245 -11.245 -11.245 -11.243 -11.243 -11.242 -11.242 -11.240
 -7.217  -5.450  -5.439  -5.439  -2.374  -2.368  -2.368  -2.356
 -2.356  -1.239  -1.160  -1.027  -1.023  -0.957  -0.957  -0.861
 -0.834  -0.814  -0.785  -0.698  -0.655  -0.637  -0.637  -0.632
 -0.631  -0.595  -0.553  -0.551  -0.551  -0.523  -0.515  -0.507
 -0.507  -0.503  -0.456  -0.392  -0.360  -0.358  -0.342  -0.313

          Ground-State Mulliken Net Atomic Charges

     Atom                 Charge (a.u.)
  ----------------------------------------
      1 C                    -0.162264
      2 C                    -0.515332
      3 C                     0.480813
      4 C                    -0.455632
      5 C                    -0.159198
      6 C                    -0.396605
      7 I                     0.229041
      8 H                     0.191176
      9 H                     0.203626
     10 H                     0.193916
     11 H                     0.204018
     12 H                     0.192588
     13 N                    -0.102347
     14 C                    -0.352234
     15 C                    -0.347565
     16 C                    -0.363505
     17 H                     0.123239
     18 H                     0.133489
     19 H                     0.132511
     20 H                     0.122369
     21 H                     0.131242
     22 H                     0.133005
     23 H                     0.121588
     24 H                     0.131589
     25 H                     0.130472
  ----------------------------------------
  Sum of atomic charges =     0.000000

                    Cartesian Multipole Moments
 -----------------------------------------------------------------
    Charge (ESU x 10^10)
                 0.0000
    Dipole Moment (Debye)
         X      -0.5994      Y      -0.0048      Z       0.0013
       Tot       0.5994
    Quadrupole Moments (Debye-Ang)
        XX     -76.2091     XY       0.0040     YY     -85.9661
        XZ      -0.0014     YZ       0.0006     ZZ     -95.7992

 Total job time:  930.65s(wall), 901.38s(cpu)
        *  Thank you very much for using Q-Chem.  Have a nice day.  *
