 Q-Chem 5.0, Q-Chem, Inc., Pleasanton, CA (2017)
 Q-Chem 5.0.2 for Intel X86 EM64T Linux

User input:
--------------------------------------------------------------
$rem
SCF_PRINT                     1
BASIS                         6-311++g**
SCF_SAVE_MATRICES             1
SCF_CONVERGENCE               5
SCF_FINAL_PRINT               1
METHOD                        hf
JOBTYPE                       sp
$end

$molecule
0 1
Br    -1.227140046    -3.025541086    -0.588241171
Br    -2.087810866    -5.109690789    -0.960898622
$end

--------------------------------------------------------------

             Standard Nuclear Orientation (Angstroms)
    I     Atom           X                Y                Z
 ----------------------------------------------------------------
    1      Br      0.0000000000     0.0000000000     1.1427278570
    2      Br     -0.0000000000    -0.0000000000    -1.1427278570
 ----------------------------------------------------------------

    7   -5144.7270121378      3.66e-06  Convergence criterion met
 Total energy in the final basis set =    -5144.7270121378

                    Orbital Energies (a.u.)
 --------------------------------------------------------------

 Alpha MOs
 -- Occupied --
*******-490.074 -65.207 -65.207 -58.567 -58.567 -58.565 -58.565
-58.565 -58.565  -9.886  -9.886  -7.501  -7.501  -7.489  -7.489
 -7.489  -7.489  -3.243  -3.240  -3.237  -3.237  -3.236  -3.236
 -3.222  -3.222  -3.222  -3.222  -1.108  -0.951  -0.538  -0.506
 -0.506  -0.408  -0.408

          Ground-State Mulliken Net Atomic Charges

     Atom                 Charge (a.u.)
  ----------------------------------------
      1 Br                    0.000000
      2 Br                    0.000000
  ----------------------------------------
  Sum of atomic charges =     0.000000

                    Cartesian Multipole Moments
 -----------------------------------------------------------------
    Charge (ESU x 10^10)
                 0.0000
    Dipole Moment (Debye)
         X       0.0000      Y      -0.0000      Z      -0.0000
       Tot       0.0000
    Quadrupole Moments (Debye-Ang)
        XX     -37.5953     XY       0.0000     YY     -37.5953
        XZ      -0.0000     YZ       0.0000     ZZ     -32.6157

 Total job time:  38.27s(wall), 38.12s(cpu)
        *  Thank you very much for using Q-Chem.  Have a nice day.  *
