 Q-Chem 5.0, Q-Chem, Inc., Pleasanton, CA (2017)
 Q-Chem 5.0.2 for Intel X86 EM64T Linux

User input:
--------------------------------------------------------------
$rem
SCF_PRINT                     1
BASIS                         6-311++g**
SCF_SAVE_MATRICES             1
SCF_CONVERGENCE               5
SCF_FINAL_PRINT               1
METHOD                        hf
JOBTYPE                       sp
$end

$molecule
0 1
C    0.7806117    -0.6098875    -1.2075426
C    0.4784039    0.7510406    -1.207904
C    0.3276592    1.4318573    0.0
C    0.4784039    0.7510406    1.207904
C    0.7806117    -0.6098875    1.2075426
C    0.932151    -1.2899614    0.0
H    0.8966688    -1.1376051    -2.1441482
H    0.3573895    1.2782091    -2.1440546
H    0.0918593    2.4871407    0.0
H    0.3573895    1.2782091    2.1440546
H    0.8966688    -1.1376051    2.1441482
H    1.1690064    -2.3451668    0.0
O    -2.788527    -0.2744854    0.0
H    -2.6229114    -1.2190831    0.0
H    -1.9015103    0.097911    0.0
$end

--------------------------------------------------------------

             Standard Nuclear Orientation (Angstroms)
    I     Atom           X                Y                Z
 ----------------------------------------------------------------
    1      C       0.7930234498    -0.5968779247    -1.2075426000
    2      C       0.4799732734     0.7615971155    -1.2079040000
    3      C       0.3238045618     1.4411901386    -0.0000000000
    4      C       0.4799732734     0.7615971155     1.2079040000
    5      C       0.7930234498    -0.5968779247     1.2075426000
    6      C       0.9499808130    -1.2757218354     0.0000000000
    7      H       0.9132848583    -1.1236533127    -2.1441482000
    8      H       0.3547591010     1.2877838916    -2.1440546000
    9      H       0.0795973723     2.4945597299    -0.0000000000
   10      H       0.3547591010     1.2877838916     2.1440546000
   11      H       0.9132848583    -1.1236533127     2.1441482000
   12      H       1.1952428470    -2.3290050126     0.0000000000
   13      O      -2.7786762608    -0.2899466522     0.0000000000
   14      H      -2.6055337432    -1.2331937091     0.0000000000
   15      H      -1.8946572348     0.0895109428    -0.0000000000
 ----------------------------------------------------------------

    7    -306.8111452515      5.13e-06  Convergence criterion met
 Total energy in the final basis set =     -306.8111452515

             Orbital Energies (a.u.) and Symmetries
 --------------------------------------------------------------

 Alpha MOs, Restricted
 -- Occupied --
-20.546 -11.251 -11.250 -11.250 -11.249 -11.249 -11.248  -1.334
  1 A'    2 A'    3 A'    1 A"    4 A'    2 A"    5 A'    6 A'
 -1.166  -1.030  -1.030  -0.838  -0.838  -0.724  -0.696  -0.657
  7 A'    8 A'    3 A"    9 A'    4 A"   10 A'   11 A'   12 A'
 -0.633  -0.602  -0.602  -0.570  -0.513  -0.508  -0.508  -0.490
  5 A"   13 A'    6 A"   14 A'   15 A'   16 A'    7 A"    8 A"
 -0.352  -0.351
 17 A'    9 A"

 Beta MOs, Restricted
 -- Occupied --
-20.546 -11.251 -11.250 -11.250 -11.249 -11.249 -11.248  -1.334
  1 A'    2 A'    3 A'    1 A"    4 A'    2 A"    5 A'    6 A'
 -1.166  -1.030  -1.030  -0.838  -0.838  -0.724  -0.696  -0.657
  7 A'    8 A'    3 A"    9 A'    4 A"   10 A'   11 A'   12 A'
 -0.633  -0.602  -0.602  -0.570  -0.513  -0.508  -0.508  -0.490
  5 A"   13 A'    6 A"   14 A'   15 A'   16 A'    7 A"    8 A"
 -0.352  -0.351
 17 A'    9 A"

          Ground-State Mulliken Net Atomic Charges

     Atom                 Charge (a.u.)
  ----------------------------------------
      1 C                    -0.230908
      2 C                    -0.162767
      3 C                    -0.258093
      4 C                    -0.162767
      5 C                    -0.230908
      6 C                    -0.217662
      7 H                     0.203058
      8 H                     0.210683
      9 H                     0.209776
     10 H                     0.210683
     11 H                     0.203058
     12 H                     0.205854
     13 O                    -0.509480
     14 H                     0.252122
     15 H                     0.277350
  ----------------------------------------
  Sum of atomic charges =    -0.000000

                    Cartesian Multipole Moments
 -----------------------------------------------------------------
    Charge (ESU x 10^10)
                -0.0000
    Dipole Moment (Debye)
         X       2.3805      Y      -0.9102      Z      -0.0000
       Tot       2.5485
    Quadrupole Moments (Debye-Ang)
        XX     -57.3582     XY       0.7667     YY     -36.0594
        XZ       0.0000     YZ       0.0000     ZZ     -38.8989

 Total job time:  109.29s(wall), 107.56s(cpu)
        *  Thank you very much for using Q-Chem.  Have a nice day.  *
