 Q-Chem 5.0, Q-Chem, Inc., Pleasanton, CA (2017)
 Q-Chem 5.0.2 for Intel X86 EM64T Linux

User input:
--------------------------------------------------------------
$rem
SCF_PRINT                     1
BASIS                         6-311++g**
SCF_SAVE_MATRICES             1
SCF_CONVERGENCE               5
SCF_FINAL_PRINT               1
METHOD                        hf
JOBTYPE                       sp
$end

$molecule
0 1
Cl    -0.107209379    -0.167310542    -0.020023104
H    0.009530218    0.008128887    1.304817825
N    0.065505431    0.069212229    2.980516721
H    1.017174917    0.090660584    3.323272637
C    -0.621666375    -1.143104238    3.441045492
H    -1.635399136    -1.140501949    3.050017598
H    -0.113160069    -2.01096036    3.030175196
H    -0.663681534    -1.241291225    4.525847684
H    -0.392131755    0.896265391    3.341308529
$end

--------------------------------------------------------------

             Standard Nuclear Orientation (Angstroms)
    I     Atom           X                Y                Z
 ----------------------------------------------------------------
    1      Cl      1.6895769970    -0.0833155340    -0.0000014698
    2      H       0.4185044747     0.3456194817    -0.0000978112
    3      N      -1.2201577421     0.7056435372    -0.0000096441
    4      H      -1.4846711586     1.2484295823     0.8117984749
    5      C      -1.9073526675    -0.5911857462     0.0000086950
    6      H      -1.5962051159    -1.1519452015    -0.8770886377
    7      H      -1.5954669749    -1.1523834905     0.8765654349
    8      H      -2.9946836254    -0.5142902194     0.0004773149
    9      H      -1.4850663494     1.2485436424    -0.8116144500
 ----------------------------------------------------------------

    8    -555.3510530424      2.24e-06  Convergence criterion met
 Total energy in the final basis set =     -555.3510530424

                    Orbital Energies (a.u.)
 --------------------------------------------------------------

 Alpha MOs
 -- Occupied --
******* -15.587 -11.270 -10.514  -7.982  -7.980  -7.980  -1.219
 -1.057  -0.932  -0.707  -0.657  -0.605  -0.564  -0.551  -0.426
 -0.426  -0.423

          Ground-State Mulliken Net Atomic Charges

     Atom                 Charge (a.u.)
  ----------------------------------------
      1 Cl                   -0.329089
      2 H                     0.310611
      3 N                    -0.588973
      4 H                     0.264250
      5 C                    -0.328147
      6 H                     0.149755
      7 H                     0.149738
      8 H                     0.107621
      9 H                     0.264234
  ----------------------------------------
  Sum of atomic charges =    -0.000000

                    Cartesian Multipole Moments
 -----------------------------------------------------------------
    Charge (ESU x 10^10)
                 0.0000
    Dipole Moment (Debye)
         X      -4.8242      Y       1.0338      Z       0.0002
       Tot       4.9337
    Quadrupole Moments (Debye-Ang)
        XX     -28.3779     XY      -1.4715     YY     -26.0562
        XZ       0.0003     YZ       0.0002     ZZ     -26.7246

 Total job time:  35.10s(wall), 31.53s(cpu)
        *  Thank you very much for using Q-Chem.  Have a nice day.  *
