 Q-Chem 5.0, Q-Chem, Inc., Pleasanton, CA (2017)
 Q-Chem 5.0.2 for Intel X86 EM64T Linux

User input:
--------------------------------------------------------------
$rem
SCF_PRINT                     1
BASIS                         6-311++g**
SCF_SAVE_MATRICES             1
SCF_CONVERGENCE               5
SCF_FINAL_PRINT               1
METHOD                        hf
JOBTYPE                       sp
$end

$molecule
0 1
F    -2.268328468    -1.958202889    -0.323025092
F    -2.703690585    0.725550383    -0.25311904
C    0.039970416    -1.620649062    0.000627529
C    -1.246714568    -1.122331457    -0.158188956
C    -1.468960632    0.248281616    -0.123448223
C    -0.404843176    1.120110725    0.068321788
C    0.88286916    0.622303553    0.223239994
C    1.104164281    -0.748842052    0.192245986
F    -0.620157741    2.430732722    0.113060107
F    1.901232288    1.45642417    0.399377483
F    0.250821528    -2.933836485    -0.010169125
F    2.333223855    -1.227390582    0.354782679
H    -1.719265622    -1.313070599    3.23511468
H    -2.117120419    1.131566386    3.250807086
C    0.409478083    -1.12597989    3.47677448
C    -0.887013607    -0.630037228    3.342089837
C    -1.111190459    0.746396788    3.352790675
C    -0.039417816    1.626442678    3.499615551
C    1.256371149    1.130100736    3.634840523
C    1.481108571    -0.245785431    3.623479226
H    -0.21365013    2.693766913    3.507370558
H    2.087582706    1.812593825    3.746420458
H    0.583630925    -2.193775854    3.470689289
H    2.486380394    -0.630785067    3.727095469
$end

--------------------------------------------------------------

             Standard Nuclear Orientation (Angstroms)
    I     Atom           X                Y                Z
 ----------------------------------------------------------------
    1      F       2.9137598732    -0.0498785698    -1.4059981543
    2      F       1.9748048407     2.3295429125    -0.4820525333
    3      C       1.4716830822    -1.2150636494     0.0464809684
    4      C       1.9817922575    -0.0254066173    -0.4571122549
    5      C       1.5029802408     1.1897697968     0.0153978112
    6      C       0.5158128983     1.2152063311     0.9921584335
    7      C       0.0081282748     0.0255130872     1.4990124558
    8      C       0.4846103256    -1.1896839535     1.0233724273
    9      F       0.0500780652     2.3783443076     1.4352081043
   10      F      -0.9306352769     0.0500433738     2.4381430847
   11      F       1.9135142673    -2.3791530916    -0.4211908626
   12      F      -0.0102327664    -2.3286020322     1.4966696202
   13      H      -0.4224900073    -0.0525617167    -2.9051491984
   14      H      -1.2390808702     2.1180001919    -2.0353072339
   15      C      -1.6572118257    -1.2222471498    -1.5889994453
   16      C      -1.1608613532    -0.0296335096    -2.1146406662
   17      C      -1.6220422640     1.1924959753    -1.6261203915
   18      C      -2.5802913395     1.2219224387    -0.6133876017
   19      C      -3.0765908841     0.0293983899    -0.0887131186
   20      C      -2.6153607200    -1.1926104892    -0.5762167264
   21      H      -2.9372908011     2.1698663699    -0.2345053644
   22      H      -3.8179300905     0.0523126378     0.6980846121
   23      H      -1.3013128092    -2.1705962168    -1.9691630939
   24      H      -2.9993886057    -2.1176572709    -0.1683644021
 ----------------------------------------------------------------

    7   -1054.7385836079      8.68e-06  Convergence criterion met
 Total energy in the final basis set =    -1054.7385836079

                    Orbital Energies (a.u.)
 --------------------------------------------------------------

 Alpha MOs
 -- Occupied --
-26.360 -26.360 -26.360 -26.359 -26.359 -26.358 -11.389 -11.389
-11.389 -11.388 -11.387 -11.387 -11.249 -11.248 -11.248 -11.247
-11.247 -11.246  -1.694  -1.687  -1.687  -1.673  -1.673  -1.666
 -1.232  -1.164  -1.088  -1.088  -1.028  -1.028  -0.939  -0.939
 -0.860  -0.837  -0.836  -0.836  -0.828  -0.777  -0.775  -0.775
 -0.775  -0.774  -0.751  -0.750  -0.726  -0.726  -0.722  -0.718
 -0.706  -0.706  -0.696  -0.655  -0.638  -0.638  -0.631  -0.602
 -0.600  -0.600  -0.548  -0.508  -0.506  -0.506  -0.392  -0.388
 -0.348  -0.345

          Ground-State Mulliken Net Atomic Charges

     Atom                 Charge (a.u.)
  ----------------------------------------
      1 F                    -0.219414
      2 F                    -0.226235
      3 C                     0.214065
      4 C                     0.047402
      5 C                     0.213493
      6 C                     0.244789
      7 C                     0.331258
      8 C                     0.251849
      9 F                    -0.216442
     10 F                    -0.207667
     11 F                    -0.226002
     12 F                    -0.216082
     13 H                     0.215060
     14 H                     0.222420
     15 C                    -0.184126
     16 C                     0.054003
     17 C                    -0.167855
     18 C                    -0.281660
     19 C                    -0.423607
     20 C                    -0.279417
     21 H                     0.212576
     22 H                     0.206981
     23 H                     0.222391
     24 H                     0.212219
  ----------------------------------------
  Sum of atomic charges =     0.000000

                    Cartesian Multipole Moments
 -----------------------------------------------------------------
    Charge (ESU x 10^10)
                 0.0000
    Dipole Moment (Debye)
         X      -0.5897      Y      -0.0000      Z      -0.0696
       Tot       0.5938
    Quadrupole Moments (Debye-Ang)
        XX    -102.5924     XY       0.0003     YY    -103.9236
        XZ       1.2634     YZ       0.0004     ZZ    -102.4883

 Total job time:  1277.96s(wall), 1244.46s(cpu)
        *  Thank you very much for using Q-Chem.  Have a nice day.  *
