 Q-Chem 5.0, Q-Chem, Inc., Pleasanton, CA (2017)
 Q-Chem 5.0.2 for Intel X86 EM64T Linux

User input:
--------------------------------------------------------------
$rem
SCF_PRINT                     1
BASIS                         6-311++g**
SCF_SAVE_MATRICES             1
SCF_CONVERGENCE               5
SCF_FINAL_PRINT               1
METHOD                        hf
JOBTYPE                       sp
$end

$molecule
0 1
H    0.002144194    0.361043475    0.029799709
C    0.015020592    0.274789738    1.107648016
C    1.227632658    0.29665504    1.794629427
C    1.243958826    0.183702791    3.183703934
C    0.047958213    0.048915002    3.886484583
C    -1.165135654    0.026954348    3.200213281
C    -1.181832083    0.139828643    1.810376587
H    2.155807907    0.399177037    1.249441585
H    2.184979344    0.198598553    3.716170761
H    0.060934662    -0.040672756    4.964014252
H    -2.093220602    -0.078628959    3.745125056
H    -2.122845437    0.123257119    1.277645797
$end

--------------------------------------------------------------

             Standard Nuclear Orientation (Angstroms)
    I     Atom           X                Y                Z
 ----------------------------------------------------------------
    1      H      -2.2543559061     1.0229088497     0.0012768223
    2      C      -1.2697033649     0.5758966898    -0.0001316402
    3      C      -1.1335154638    -0.8112955776    -0.0003360051
    4      C       0.1357413024    -1.3870906796    -0.0003850695
    5      C       1.2693184768    -0.5762339493    -0.0002972513
    6      C       1.1339800488     0.8111127147    -0.0000868893
    7      C      -0.1358139923     1.3875574034     0.0000782431
    8      H      -2.0128397266    -1.4406084852     0.0016491473
    9      H       0.2410438805    -2.4632737326     0.0015705282
   10      H       2.2539761696    -1.0231232047     0.0016427342
   11      H       2.0133246974     1.4405332048     0.0010010669
   12      H      -0.2411911575     2.4638837592    -0.0001886252
 ----------------------------------------------------------------

    6    -230.7563339594      6.42e-06  Convergence criterion met
 Total energy in the final basis set =     -230.7563339594

                    Orbital Energies (a.u.)
 --------------------------------------------------------------

 Alpha MOs
 -- Occupied --
-11.238 -11.238 -11.238 -11.237 -11.237 -11.236  -1.153  -1.017
 -1.017  -0.826  -0.826  -0.712  -0.645  -0.621  -0.590  -0.590
 -0.502  -0.496  -0.496  -0.337  -0.337

          Ground-State Mulliken Net Atomic Charges

     Atom                 Charge (a.u.)
  ----------------------------------------
      1 H                     0.192602
      2 C                    -0.192769
      3 C                    -0.192564
      4 C                    -0.192268
      5 C                    -0.192574
      6 C                    -0.192840
      7 C                    -0.192475
      8 H                     0.192534
      9 H                     0.192528
     10 H                     0.192548
     11 H                     0.192612
     12 H                     0.192665
  ----------------------------------------
  Sum of atomic charges =    -0.000000

                    Cartesian Multipole Moments
 -----------------------------------------------------------------
    Charge (ESU x 10^10)
                -0.0000
    Dipole Moment (Debye)
         X      -0.0000      Y      -0.0004      Z       0.0060
       Tot       0.0060
    Quadrupole Moments (Debye-Ang)
        XX     -31.9165     XY      -0.0001     YY     -31.9193
        XZ      -0.0001     YZ      -0.0069     ZZ     -41.3071

 Total job time:  91.17s(wall), 89.25s(cpu)
        *  Thank you very much for using Q-Chem.  Have a nice day.  *
