 Q-Chem 5.0, Q-Chem, Inc., Pleasanton, CA (2017)
 Q-Chem 5.0.2 for Intel X86 EM64T Linux

User input:
--------------------------------------------------------------
$rem
SCF_PRINT                     1
BASIS                         6-311++g**
SCF_SAVE_MATRICES             1
SCF_CONVERGENCE               5
SCF_FINAL_PRINT               1
METHOD                        hf
JOBTYPE                       sp
$end

$molecule
0 1
C    -0.223913    0.002109    0.127404
C    -0.229554    0.001265    1.520572
C    0.966066    -0.0021    2.235729
C    2.176417    -0.004636    1.545888
C    2.194095    -0.003818    0.152623
C    0.992179    -0.000449    -0.552274
Br    -1.869237    0.004669    2.446186
H    0.946534    -0.002734    3.316252
H    3.10476    -0.007248    2.100804
H    3.135463    -0.005789    -0.378706
H    0.99688    0.000205    -1.633817
H    -1.159029    0.004715    -0.414303
$end

--------------------------------------------------------------

             Standard Nuclear Orientation (Angstroms)
    I     Atom           X                Y                Z
 ----------------------------------------------------------------
    1      C      -0.7759080473    -1.2105152146     0.0000103803
    2      C      -0.0861685576    -0.0000570180     0.0000164464
    3      C      -0.7758250438     1.2104560853     0.0000097114
    4      C      -2.1689521681     1.2046772290    -0.0000032640
    5      C      -2.8692216951     0.0000515069    -0.0000060448
    6      C      -2.1690389618    -1.2046216196    -0.0000042974
    7      Br      1.7967369635    -0.0000007659    -0.0000030718
    8      H      -0.2276727635     2.1418211759    -0.0000019399
    9      H      -2.7046200231     2.1442618523    -0.0000079577
   10      H      -3.9501879763     0.0000894905    -0.0000114987
   11      H      -2.7047771619    -2.1441653221    -0.0000094355
   12      H      -0.2278489557    -2.1419262036     0.0000007521
 ----------------------------------------------------------------

    8   -2802.5395955894      5.34e-06  Convergence criterion met
 Total energy in the final basis set =    -2802.5395955894

                    Orbital Energies (a.u.)
 --------------------------------------------------------------

 Alpha MOs
 -- Occupied --
******* -65.161 -58.521 -58.519 -58.519 -11.303 -11.255 -11.255
-11.253 -11.253 -11.250  -9.841  -7.454  -7.446  -7.446  -3.194
 -3.190  -3.190  -3.180  -3.180  -1.179  -1.077  -1.035  -0.978
 -0.848  -0.821  -0.714  -0.648  -0.647  -0.607  -0.579  -0.534
 -0.517  -0.497  -0.440  -0.418  -0.354  -0.335

          Ground-State Mulliken Net Atomic Charges

     Atom                 Charge (a.u.)
  ----------------------------------------
      1 C                    -0.362479
      2 C                     0.649696
      3 C                    -0.362433
      4 C                    -0.159209
      5 C                    -0.352413
      6 C                    -0.159192
      7 Br                   -0.382414
      8 H                     0.258341
      9 H                     0.202323
     10 H                     0.207121
     11 H                     0.202322
     12 H                     0.258338
  ----------------------------------------
  Sum of atomic charges =     0.000000

                    Cartesian Multipole Moments
 -----------------------------------------------------------------
    Charge (ESU x 10^10)
                 0.0000
    Dipole Moment (Debye)
         X      -2.0037      Y       0.0000      Z      -0.0000
       Tot       2.0037
    Quadrupole Moments (Debye-Ang)
        XX     -49.4508     XY       0.0002     YY     -48.4310
        XZ       0.0000     YZ      -0.0000     ZZ     -58.7820

 Total job time:  281.40s(wall), 265.26s(cpu)
        *  Thank you very much for using Q-Chem.  Have a nice day.  *
