 Q-Chem 5.0, Q-Chem, Inc., Pleasanton, CA (2017)
 Q-Chem 5.0.2 for Intel X86 EM64T Linux

User input:
--------------------------------------------------------------
$rem
SCF_PRINT                     1
BASIS                         6-311++g**
SCF_SAVE_MATRICES             1
SCF_CONVERGENCE               5
SCF_FINAL_PRINT               1
METHOD                        hf
JOBTYPE                       sp
$end

$molecule
0 1
C    2.5118997    1.6250148    0.0
C    2.7130094    0.9578537    -1.2082918
C    3.1177821    -0.3767436    -1.2083647
C    3.3213848    -1.0437307    0.0
C    3.1177821    -0.3767436    1.2083647
C    2.7130094    0.9578537    1.2082918
H    2.2024038    2.6611358    0.0
H    2.551176    1.4736908    -2.14459
H    3.2702999    -0.8951406    -2.1448379
H    3.6368139    -2.0781521    0.0
H    3.2702999    -0.8951406    2.1448379
H    2.551176    1.4736908    2.14459
$end

--------------------------------------------------------------

             Standard Nuclear Orientation (Angstroms)
    I     Atom           X                Y                Z
 ----------------------------------------------------------------
    1      C      -0.0009623878    -1.3942102571     0.0000000000
    2      C       0.0001562585    -0.6973976615    -1.2082918000
    3      C       0.0000299112     0.6972316354    -1.2083647000
    4      C      -0.0012876827     1.3946010605    -0.0000000000
    5      C       0.0000299112     0.6972316354     1.2083647000
    6      C       0.0001562585    -0.6973976615     1.2082918000
    7      H      -0.0054112236    -2.4755587886     0.0000000000
    8      H       0.0053576024    -1.2380000192    -2.1445900000
    9      H       0.0044861761     1.2375808472    -2.1448379000
   10      H      -0.0030099466     2.4760446252    -0.0000000000
   11      H       0.0044861761     1.2375808472     2.1448379000
   12      H       0.0053576024    -1.2380000192     2.1445900000
 ----------------------------------------------------------------

    6    -230.7562521857      6.41e-06  Convergence criterion met
 Total energy in the final basis set =     -230.7562521857

             Orbital Energies (a.u.) and Symmetries
 --------------------------------------------------------------

 Alpha MOs, Restricted
 -- Occupied --
-11.239 -11.238 -11.238 -11.237 -11.237 -11.236  -1.152  -1.017
  1 A'    2 A'    1 A"    3 A'    2 A"    4 A'    5 A'    3 A"
 -1.016  -0.826  -0.826  -0.711  -0.646  -0.621  -0.590  -0.590
  6 A'    7 A'    4 A"    8 A'    9 A'    5 A"    6 A"   10 A'
 -0.502  -0.497  -0.496  -0.337  -0.337
 11 A'    7 A"   12 A'    8 A"   13 A'

 Beta MOs, Restricted
 -- Occupied --
-11.239 -11.238 -11.238 -11.237 -11.237 -11.236  -1.152  -1.017
  1 A'    2 A'    1 A"    3 A'    2 A"    4 A'    5 A'    3 A"
 -1.016  -0.826  -0.826  -0.711  -0.646  -0.621  -0.590  -0.590
  6 A'    7 A'    4 A"    8 A'    9 A'    5 A"    6 A"   10 A'
 -0.502  -0.497  -0.496  -0.337  -0.337
 11 A'    7 A"   12 A'    8 A"   13 A'

          Ground-State Mulliken Net Atomic Charges

     Atom                 Charge (a.u.)
  ----------------------------------------
      1 C                    -0.191105
      2 C                    -0.193654
      3 C                    -0.192283
      4 C                    -0.193116
      5 C                    -0.192283
      6 C                    -0.193654
      7 H                     0.192655
      8 H                     0.192648
      9 H                     0.192687
     10 H                     0.192768
     11 H                     0.192687
     12 H                     0.192648
  ----------------------------------------
  Sum of atomic charges =    -0.000000

                    Cartesian Multipole Moments
 -----------------------------------------------------------------
    Charge (ESU x 10^10)
                -0.0000
    Dipole Moment (Debye)
         X       0.0098      Y      -0.0004      Z       0.0000
       Tot       0.0098
    Quadrupole Moments (Debye-Ang)
        XX     -41.3225     XY       0.0046     YY     -31.9226
        XZ       0.0000     YZ       0.0000     ZZ     -31.9040

 Total job time:  49.66s(wall), 48.98s(cpu)
        *  Thank you very much for using Q-Chem.  Have a nice day.  *
