 Q-Chem 5.0, Q-Chem, Inc., Pleasanton, CA (2017)
 Q-Chem 5.0.2 for Intel X86 EM64T Linux

User input:
--------------------------------------------------------------
$rem
SCF_PRINT                     1
BASIS                         6-311++g**
SCF_SAVE_MATRICES             1
SCF_CONVERGENCE               5
SCF_FINAL_PRINT               1
METHOD                        hf
JOBTYPE                       sp
$end

$molecule
0 1
O    -0.222171001    7.107e-06    3.082519813
H    -1.034384448    -5.361e-06    3.593737797
C    0.882609855    1.116e-06    3.981271022
H    1.779241003    -4.02e-07    3.370105894
H    0.890969395    0.888981441    4.610910354
H    0.890965051    -0.888981553    4.610907087
$end

--------------------------------------------------------------

             Standard Nuclear Orientation (Angstroms)
    I     Atom           X                Y                Z
 ----------------------------------------------------------------
    1      O       0.7485996844    -0.1222502950    -0.0000000285
    2      H       1.1458341268     0.7513853892    -0.0000000667
    3      C      -0.6683755538     0.0208428558     0.0000000558
    4      H      -1.0811525078    -0.9826935986    -0.0000158588
    5      H      -1.0216131753     0.5421131372     0.8889894062
    6      H      -1.0216125965     0.5421402971    -0.8889735876
 ----------------------------------------------------------------

    7    -115.0796698427      9.35e-06  Convergence criterion met
 Total energy in the final basis set =     -115.0796698427

                    Orbital Energies (a.u.)
 --------------------------------------------------------------

 Alpha MOs
 -- Occupied --
-20.557 -11.273  -1.357  -0.929  -0.692  -0.622  -0.594  -0.505
 -0.453

          Ground-State Mulliken Net Atomic Charges

     Atom                 Charge (a.u.)
  ----------------------------------------
      1 O                    -0.390193
      2 H                     0.257124
      3 C                    -0.210106
      4 H                     0.133207
      5 H                     0.104984
      6 H                     0.104983
  ----------------------------------------
  Sum of atomic charges =     0.000000

                    Cartesian Multipole Moments
 -----------------------------------------------------------------
    Charge (ESU x 10^10)
                 0.0000
    Dipole Moment (Debye)
         X      -1.0878      Y       1.7032      Z      -0.0000
       Tot       2.0209
    Quadrupole Moments (Debye-Ang)
        XX     -12.9859     XY       2.4506     YY     -12.1628
        XZ       0.0000     YZ       0.0000     ZZ     -13.7410

 Total job time:  6.58s(wall), 6.06s(cpu)
        *  Thank you very much for using Q-Chem.  Have a nice day.  *
