 Q-Chem 5.0, Q-Chem, Inc., Pleasanton, CA (2017)
 Q-Chem 5.0.2 for Intel X86 EM64T Linux

User input:
--------------------------------------------------------------
$rem
SCF_PRINT                     1
BASIS                         6-311++g**
SCF_SAVE_MATRICES             1
SCF_CONVERGENCE               5
SCF_FINAL_PRINT               1
METHOD                        hf
JOBTYPE                       sp
$end

$molecule
0 1
O    4.897505466    0.876848804    1.390216211
C    5.194460139    0.238307081    0.405156763
H    6.244196376    0.054496103    0.1283635
H    4.430085674    -0.188680322    -0.260183673
$end

--------------------------------------------------------------

             Standard Nuclear Orientation (Angstroms)
    I     Atom           X                Y                Z
 ----------------------------------------------------------------
    1      O       0.6778522461    -0.0001380946     0.0000021426
    2      C      -0.5330398104     0.0002532411    -0.0000088287
    3      H      -1.1128761168    -0.9357686660     0.0000179035
    4      H      -1.1117029898     0.9353539763     0.0000179283
 ----------------------------------------------------------------

    8    -113.9010646938      9.12e-06  Convergence criterion met
 Total energy in the final basis set =     -113.9010646938

                    Orbital Energies (a.u.)
 --------------------------------------------------------------

 Alpha MOs
 -- Occupied --
-20.580 -11.346  -1.407  -0.874  -0.696  -0.653  -0.536  -0.445

          Ground-State Mulliken Net Atomic Charges

     Atom                 Charge (a.u.)
  ----------------------------------------
      1 O                    -0.307288
      2 C                     0.118931
      3 H                     0.094036
      4 H                     0.094321
  ----------------------------------------
  Sum of atomic charges =     0.000000

                    Cartesian Multipole Moments
 -----------------------------------------------------------------
    Charge (ESU x 10^10)
                 0.0000
    Dipole Moment (Debye)
         X      -2.9746      Y       0.0021      Z       0.0000
       Tot       2.9746
    Quadrupole Moments (Debye-Ang)
        XX     -12.2178     XY      -0.0011     YY     -11.4729
        XZ      -0.0000     YZ      -0.0000     ZZ     -11.7426

 Total job time:  3.30s(wall), 3.03s(cpu)
        *  Thank you very much for using Q-Chem.  Have a nice day.  *
