 Q-Chem 5.0, Q-Chem, Inc., Pleasanton, CA (2017)
 Q-Chem 5.0.2 for Intel X86 EM64T Linux

User input:
--------------------------------------------------------------
$rem
SCF_PRINT                     1
BASIS                         6-311++g**
SCF_SAVE_MATRICES             1
SCF_CONVERGENCE               5
SCF_FINAL_PRINT               1
METHOD                        hf
JOBTYPE                       sp
$end

$molecule
0 1
C    0.0    0.0    2.900503
C    0.0    0.0    1.69324
H    0.0    0.0    0.627352
H    0.0    0.0    3.963929
$end

--------------------------------------------------------------

             Standard Nuclear Orientation (Angstroms)
    I     Atom           X                Y                Z
 ----------------------------------------------------------------
    1      C       0.0000000000     0.0000000000     0.6038073571
    2      C       0.0000000000     0.0000000000    -0.6034556429
    3      H       0.0000000000     0.0000000000    -1.6693436429
    4      H       0.0000000000     0.0000000000     1.6672333571
 ----------------------------------------------------------------

    7     -76.8414287268      7.29e-06  Convergence criterion met
 Total energy in the final basis set =      -76.8414287268

                    Orbital Energies (a.u.)
 --------------------------------------------------------------

 Alpha MOs
 -- Occupied --
-11.247 -11.243  -1.032  -0.768  -0.682  -0.411  -0.411

          Ground-State Mulliken Net Atomic Charges

     Atom                 Charge (a.u.)
  ----------------------------------------
      1 C                    -0.228650
      2 C                    -0.220239
      3 H                     0.225443
      4 H                     0.223446
  ----------------------------------------
  Sum of atomic charges =     0.000000

                    Cartesian Multipole Moments
 -----------------------------------------------------------------
    Charge (ESU x 10^10)
                 0.0000
    Dipole Moment (Debye)
         X      -0.0000      Y      -0.0000      Z      -0.0037
       Tot       0.0037
    Quadrupole Moments (Debye-Ang)
        XX     -14.1009     XY      -0.0000     YY     -14.1009
        XZ      -0.0000     YZ      -0.0000     ZZ      -6.6730

 Total job time:  3.08s(wall), 2.67s(cpu)
        *  Thank you very much for using Q-Chem.  Have a nice day.  *
