 Q-Chem 5.0, Q-Chem, Inc., Pleasanton, CA (2017)
 Q-Chem 5.0.2 for Intel X86 EM64T Linux

User input:
--------------------------------------------------------------
$rem
SCF_PRINT                     1
BASIS                         6-311++g**
SCF_SAVE_MATRICES             1
SCF_CONVERGENCE               5
SCF_FINAL_PRINT               1
METHOD                        hf
JOBTYPE                       sp
$end

$molecule
0 1
F    0.324738231    -9.6172e-05    0.367513243
H    0.106356599    -1.5606e-05    1.274535595
O    -0.167235591    0.000145557    2.943064329
H    -1.010969151    -3.9884e-05    3.399033154
C    0.88199533    1.8821e-05    3.906791538
H    1.813385323    5.9838e-05    3.351066264
H    0.849525704    0.88916881    4.534616489
H    0.849495114    -0.889261044    4.534430809
$end

--------------------------------------------------------------

             Standard Nuclear Orientation (Angstroms)
    I     Atom           X                Y                Z
 ----------------------------------------------------------------
    1      F       2.0313441224    -0.1787983545    -0.0000105013
    2      H       1.1490224892     0.1243330130     0.0000052404
    3      O      -0.4861783556     0.5544016622     0.0000594610
    4      H      -0.8603604088     1.4374541135    -0.0002290570
    5      C      -1.5447595573    -0.3990455095    -0.0000130981
    6      H      -1.0795524756    -1.3787905005     0.0001442374
    7      H      -2.1667398548    -0.3072932079     0.8891034147
    8      H      -2.1664826635    -0.3074584681    -0.8893264230
 ----------------------------------------------------------------

    8    -215.1468821907      2.80e-06  Convergence criterion met
 Total energy in the final basis set =     -215.1468821907

                    Orbital Energies (a.u.)
 --------------------------------------------------------------

 Alpha MOs
 -- Occupied --
-26.241 -20.600 -11.299  -1.547  -1.402  -0.960  -0.754  -0.709
 -0.654  -0.626  -0.598  -0.598  -0.542  -0.491

          Ground-State Mulliken Net Atomic Charges

     Atom                 Charge (a.u.)
  ----------------------------------------
      1 F                    -0.366950
      2 H                     0.375063
      3 O                    -0.481202
      4 H                     0.300530
      5 C                    -0.232767
      6 H                     0.155225
      7 H                     0.125050
      8 H                     0.125050
  ----------------------------------------
  Sum of atomic charges =    -0.000000

                    Cartesian Multipole Moments
 -----------------------------------------------------------------
    Charge (ESU x 10^10)
                -0.0000
    Dipole Moment (Debye)
         X      -4.8003      Y       1.0862      Z      -0.0006
       Tot       4.9217
    Quadrupole Moments (Debye-Ang)
        XX     -22.5202     XY       0.0331     YY     -15.3994
        XZ       0.0006     YZ      -0.0010     ZZ     -19.2695

 Total job time:  18.09s(wall), 16.18s(cpu)
        *  Thank you very much for using Q-Chem.  Have a nice day.  *
