 Q-Chem 5.0, Q-Chem, Inc., Pleasanton, CA (2017)
 Q-Chem 5.0.2 for Intel X86 EM64T Linux

User input:
--------------------------------------------------------------
$rem
SCF_PRINT                     1
BASIS                         6-311++g**
SCF_SAVE_MATRICES             1
SCF_CONVERGENCE               5
SCF_FINAL_PRINT               1
METHOD                        hf
JOBTYPE                       sp
$end

$molecule
0 1
C    0.00591865    -0.003496527    1.853878993
F    -1.172542855    0.674817567    1.614587488
H    0.830709843    0.546048289    1.407962789
H    -0.056058041    -0.993747823    1.41035538
H    0.156078035    -0.088328739    2.927069055
C    0.017128682    -0.009767481    -1.680303942
H    -0.063241616    0.035668447    -2.761803854
H    -0.841686927    -0.534736175    -1.274267671
H    0.927869926    -0.535377764    -1.409431408
H    0.042730234    0.99699675    -1.275640625
$end

--------------------------------------------------------------

             Standard Nuclear Orientation (Angstroms)
    I     Atom           X                Y                Z
 ----------------------------------------------------------------
    1      C       1.2376382453    -0.6324243706    -0.0000052751
    2      F       1.2515213319     0.7481368243     0.0000024146
    3      H       0.7184890946    -0.9839498952    -0.8877187665
    4      H       0.7209965605    -0.9839966815     0.8891686193
    5      H       2.2610649493    -0.9985896064    -0.0014391556
    6      C      -2.2390742681     0.0024646800    -0.0000014020
    7      H      -3.2853527182     0.2913707017     0.0007623893
    8      H      -1.7514812577     0.4023385528     0.8833873999
    9      H      -2.1654428118    -1.0808933797     0.0011969614
   10      H      -1.7533496670     0.4002470332    -0.8853391160
 ----------------------------------------------------------------

    7    -179.2913953554      6.00e-06  Convergence criterion met
 Total energy in the final basis set =     -179.2913953554

                    Orbital Energies (a.u.)
 --------------------------------------------------------------

 Alpha MOs
 -- Occupied --
-26.278 -11.307 -11.205  -1.589  -0.958  -0.944  -0.697  -0.696
 -0.676  -0.548  -0.546  -0.546  -0.531  -0.531

          Ground-State Mulliken Net Atomic Charges

     Atom                 Charge (a.u.)
  ----------------------------------------
      1 C                    -0.153822
      2 F                    -0.238809
      3 H                     0.126148
      4 H                     0.126106
      5 H                     0.140911
      6 C                    -0.512208
      7 H                     0.124605
      8 H                     0.133379
      9 H                     0.120379
     10 H                     0.133312
  ----------------------------------------
  Sum of atomic charges =     0.000000

                    Cartesian Multipole Moments
 -----------------------------------------------------------------
    Charge (ESU x 10^10)
                 0.0000
    Dipole Moment (Debye)
         X      -0.0252      Y      -2.1424      Z       0.0000
       Tot       2.1425
    Quadrupole Moments (Debye-Ang)
        XX     -20.3191     XY      -2.9327     YY     -21.1025
        XZ      -0.0001     YZ       0.0000     ZZ     -20.1690

 Total job time:  22.14s(wall), 21.81s(cpu)
        *  Thank you very much for using Q-Chem.  Have a nice day.  *
