 Q-Chem 5.0, Q-Chem, Inc., Pleasanton, CA (2017)
 Q-Chem 5.0.2 for Intel X86 EM64T Linux

User input:
--------------------------------------------------------------
$rem
SCF_PRINT                     1
BASIS                         6-311++g**
SCF_SAVE_MATRICES             1
SCF_CONVERGENCE               5
SCF_FINAL_PRINT               1
METHOD                        hf
JOBTYPE                       sp
$end

$molecule
0 1
N    1.2754606    -0.6478993    -1.9779104
C    1.4130533    -1.553685    -0.9550667
H    2.4258769    -1.867078    -0.7468778
C    0.3575976    -2.0239499    -0.2530575
C    0.4821292    -3.0179494    0.8521221
H    0.1757705    -2.5756065    1.7986281
H    -0.1601691    -3.8770412    0.6639498
H    1.5112443    -3.3572767    0.9513659
C    -0.9684711    -1.5298112    -0.5939792
O    -2.002928    -1.8396957    -0.0199453
N    -0.9956916    -0.638387    -1.672042
H    -1.9014057    -0.250172    -1.898576
C    0.0684702    -0.1191762    -2.3763759
O    -0.0397875    0.7227006    -3.2531083
H    2.0853289    -0.2760176    -2.4454577
$end

--------------------------------------------------------------

             Standard Nuclear Orientation (Angstroms)
    I     Atom           X                Y                Z
 ----------------------------------------------------------------
    1      N       1.1173536526    -1.2343885506    -0.0097541380
    2      C      -0.2342849451    -1.4762521805     0.0030445248
    3      H      -0.5182906918    -2.5186011700     0.0178349014
    4      C      -1.1510837130    -0.4825676941    -0.0018430565
    5      C      -2.6233702651    -0.7220198389    -0.0020721760
    6      H      -3.0706974243    -0.3454762537     0.9163557435
    7      H      -3.0921208442    -0.2027502817    -0.8367138135
    8      H      -2.8410190741    -1.7855821649    -0.0764658052
    9      C      -0.6730019177     0.8923116621    -0.0036897301
   10      O      -1.3870202365     1.8846562382     0.0290895681
   11      N       0.7192940067     1.0220678300    -0.0513642149
   12      H       1.0742037004     1.9679695918    -0.0106759294
   13      C       1.6704894797     0.0262417623    -0.0105714550
   14      O       2.8725727054     0.2326859644     0.0283218213
   15      H       1.7744791340    -1.9943345639     0.0489936150
 ----------------------------------------------------------------

    9    -451.6263522027      5.14e-06  Convergence criterion met
 Total energy in the final basis set =     -451.6263522027

                    Orbital Energies (a.u.)
 --------------------------------------------------------------

 Alpha MOs
 -- Occupied --
-20.544 -20.544 -15.642 -15.629 -11.421 -11.383 -11.334 -11.264
-11.239  -1.436  -1.401  -1.313  -1.248  -1.114  -0.975  -0.922
 -0.900  -0.777  -0.773  -0.713  -0.678  -0.670  -0.643  -0.621
 -0.596  -0.572  -0.562  -0.555  -0.514  -0.481  -0.450  -0.436
 -0.355

          Ground-State Mulliken Net Atomic Charges

     Atom                 Charge (a.u.)
  ----------------------------------------
      1 N                    -0.530228
      2 C                    -0.130587
      3 H                     0.242802
      4 C                     0.440594
      5 C                    -0.729391
      6 H                     0.177286
      7 H                     0.178384
      8 H                     0.127947
      9 C                     0.314176
     10 O                    -0.420115
     11 N                    -0.569123
     12 H                     0.418629
     13 C                     0.538981
     14 O                    -0.445947
     15 H                     0.386593
  ----------------------------------------
  Sum of atomic charges =     0.000000

                    Cartesian Multipole Moments
 -----------------------------------------------------------------
    Charge (ESU x 10^10)
                 0.0000
    Dipole Moment (Debye)
         X      -1.2217      Y      -4.9511      Z       0.0325
       Tot       5.0998
    Quadrupole Moments (Debye-Ang)
        XX     -65.7020     XY       3.5836     YY     -47.8041
        XZ       0.1112     YZ      -0.3513     ZZ     -53.0778

 Total job time:  267.17s(wall), 266.35s(cpu)
        *  Thank you very much for using Q-Chem.  Have a nice day.  *
