 Q-Chem 5.0, Q-Chem, Inc., Pleasanton, CA (2017)
 Q-Chem 5.0.2 for Intel X86 EM64T Linux

User input:
--------------------------------------------------------------
$rem
SCF_PRINT                     1
BASIS                         6-311++g**
SCF_SAVE_MATRICES             1
SCF_CONVERGENCE               5
SCF_FINAL_PRINT               1
METHOD                        hf
JOBTYPE                       sp
$end

$molecule
0 1
C    -0.739281    0.5158785    -1.2071079
C    -1.4261442    0.3965455    0.0
C    -0.739281    0.5158785    1.2071079
C    0.6342269    0.7546398    1.2070735
C    1.3210434    0.8737566    0.0
C    0.6342269    0.7546398    -1.2070735
H    -1.2719495    0.4206316    -2.1432894
H    -2.4902205    0.2052381    0.0
H    -1.2719495    0.4206316    2.1432894
H    1.1668005    0.8474885    2.143695
H    2.3863585    1.0596312    0.0
H    1.1668005    0.8474885    -2.143695
$end

--------------------------------------------------------------

             Standard Nuclear Orientation (Angstroms)
    I     Atom           X                Y                Z
 ----------------------------------------------------------------
    1      C      -0.6970217833    -0.0005475396     1.2071079000
    2      C      -1.3941740681    -0.0008823868    -0.0000000000
    3      C      -0.6970217833    -0.0005475396    -1.2071079000
    4      C       0.6970838870    -0.0000092353    -1.2070735000
    5      C       1.3941530553     0.0005305875     0.0000000000
    6      C       0.6970838870    -0.0000092353     1.2070735000
    7      H      -1.2381335342     0.0018557670     2.1432894000
    8      H      -2.4752952308     0.0049421447    -0.0000000000
    9      H      -1.2381335342     0.0018557670    -2.1432894000
   10      H       1.2376905067    -0.0000662231    -2.1436950000
   11      H       2.4755621184     0.0002708610     0.0000000000
   12      H       1.2376905067    -0.0000662231     2.1436950000
 ----------------------------------------------------------------

    6    -230.7563388707      6.39e-06  Convergence criterion met
 Total energy in the final basis set =     -230.7563388707

             Orbital Energies (a.u.) and Symmetries
 --------------------------------------------------------------

 Alpha MOs, Restricted
 -- Occupied --
-11.238 -11.238 -11.238 -11.237 -11.237 -11.236  -1.153  -1.017
  1 A'    1 A"    2 A'    2 A"    3 A'    4 A'    5 A'    6 A'
 -1.017  -0.826  -0.826  -0.712  -0.645  -0.621  -0.590  -0.590
  3 A"    4 A"    7 A'    8 A'    9 A'    5 A"   10 A'    6 A"
 -0.502  -0.496  -0.496  -0.337  -0.337
 11 A'   12 A'    7 A"   13 A'    8 A"

 Beta MOs, Restricted
 -- Occupied --
-11.238 -11.238 -11.238 -11.237 -11.237 -11.236  -1.153  -1.017
  1 A'    1 A"    2 A'    2 A"    3 A'    4 A'    5 A'    6 A'
 -1.017  -0.826  -0.826  -0.712  -0.645  -0.621  -0.590  -0.590
  3 A"    4 A"    7 A'    8 A'    9 A'    5 A"   10 A'    6 A"
 -0.502  -0.496  -0.496  -0.337  -0.337
 11 A'   12 A'    7 A"   13 A'    8 A"

          Ground-State Mulliken Net Atomic Charges

     Atom                 Charge (a.u.)
  ----------------------------------------
      1 C                    -0.192261
      2 C                    -0.192467
      3 C                    -0.192261
      4 C                    -0.192833
      5 C                    -0.192711
      6 C                    -0.192833
      7 H                     0.192556
      8 H                     0.192461
      9 H                     0.192556
     10 H                     0.192599
     11 H                     0.192596
     12 H                     0.192599
  ----------------------------------------
  Sum of atomic charges =    -0.000000

                    Cartesian Multipole Moments
 -----------------------------------------------------------------
    Charge (ESU x 10^10)
                -0.0000
    Dipole Moment (Debye)
         X      -0.0007      Y       0.0076      Z       0.0000
       Tot       0.0076
    Quadrupole Moments (Debye-Ang)
        XX     -31.9134     XY      -0.0199     YY     -41.3059
        XZ       0.0000     YZ      -0.0000     ZZ     -31.9229

 Total job time:  56.23s(wall), 55.16s(cpu)
        *  Thank you very much for using Q-Chem.  Have a nice day.  *
