 Q-Chem 5.0, Q-Chem, Inc., Pleasanton, CA (2017)
 Q-Chem 5.0.2 for Intel X86 EM64T Linux

User input:
--------------------------------------------------------------
$rem
SCF_PRINT                     1
BASIS                         6-311++g**
SCF_SAVE_MATRICES             1
SCF_CONVERGENCE               5
SCF_FINAL_PRINT               1
METHOD                        hf
JOBTYPE                       sp
$end

$molecule
0 1
C    -0.099779142    -0.049213106    -0.049809806
H    -0.812383509    0.769437899    -0.053814782
H    -0.386626161    -0.773928179    0.705768112
H    0.890551861    0.333663823    0.175221084
H    -0.089826477    -0.524172039    -1.025860985
$end

--------------------------------------------------------------

             Standard Nuclear Orientation (Angstroms)
    I     Atom           X                Y                Z
 ----------------------------------------------------------------
    1      C      -0.0000157756    -0.0000276970    -0.0002081722
    2      H       0.0046553983    -0.9261326734     0.5657584739
    3      H       0.8817115906     0.0414605630    -0.6320520734
    4      H       0.0064903546     0.8425947219     0.6838490396
    5      H      -0.8927626899     0.0422435705    -0.6163064067
 ----------------------------------------------------------------

    6     -40.2091455912      6.65e-06  Convergence criterion met
 Total energy in the final basis set =      -40.2091455912

                    Orbital Energies (a.u.)
 --------------------------------------------------------------

 Alpha MOs
 -- Occupied --
-11.206  -0.945  -0.546  -0.546  -0.545

          Ground-State Mulliken Net Atomic Charges

     Atom                 Charge (a.u.)
  ----------------------------------------
      1 C                    -0.468512
      2 H                     0.117147
      3 H                     0.117106
      4 H                     0.117152
      5 H                     0.117107
  ----------------------------------------
  Sum of atomic charges =    -0.000000

                    Cartesian Multipole Moments
 -----------------------------------------------------------------
    Charge (ESU x 10^10)
                -0.0000
    Dipole Moment (Debye)
         X       0.0000      Y       0.0001      Z       0.0009
       Tot       0.0009
    Quadrupole Moments (Debye-Ang)
        XX      -8.4157     XY      -0.0000     YY      -8.4210
        XZ       0.0000     YZ      -0.0000     ZZ      -8.4277

 Total job time:  1.78s(wall), 1.76s(cpu)
        *  Thank you very much for using Q-Chem.  Have a nice day.  *
