 Q-Chem 5.0, Q-Chem, Inc., Pleasanton, CA (2017)
 Q-Chem 5.0.2 for Intel X86 EM64T Linux

User input:
--------------------------------------------------------------
$rem
SCF_PRINT                     1
BASIS                         6-311++g**
SCF_SAVE_MATRICES             1
SCF_CONVERGENCE               5
SCF_FINAL_PRINT               1
METHOD                        hf
JOBTYPE                       sp
$end

$molecule
0 1
N    0.9350155    -0.0279801    -0.3788916
C    1.6739638    -0.0357766    0.7424316
C    3.0747955    -0.009448    0.5994562
C    3.5646109    0.0195446    -0.7059872
N    2.853151    0.0258031    -1.8409596
C    1.549076    0.0012569    -1.5808009
N    4.0885824    -0.0054429    1.5289786
C    5.1829921    0.0253971    0.7872176
N    4.9294871    0.0412404    -0.5567274
N    1.0716177    -0.0765366    1.939139
H    0.8794435    0.005026    -2.4315709
H    6.1882591    0.0375542    1.1738824
H    5.6035368    0.0648755    -1.3036811
H    0.0586915    -0.0423765    2.0039181
H    1.6443796    -0.0347395    2.7619159
N    -3.9211729    -0.0009646    -1.5163659
C    -4.6136833    0.0169051    -0.333652
C    -3.9917387    0.0219348    0.8663338
C    -2.5361367    0.0074651    0.8766724
N    -1.9256484    -0.0110593    -0.3638948
C    -2.5395897    -0.0149474    -1.5962357
C    -4.7106131    0.0413373    2.1738637
O    -1.867473    0.0112093    1.9120833
O    -1.9416783    -0.0291878    -2.6573783
H    -4.4017172    -0.0036078    -2.4004924
H    -0.8838255    -0.0216168    -0.3784269
H    -5.690922    0.0269347    -0.4227183
H    -4.4439282    -0.8302573    2.7695655
H    -4.4267056    0.9186178    2.7530256
H    -5.7883971    0.050553    2.024728
$end

--------------------------------------------------------------

             Standard Nuclear Orientation (Angstroms)
    I     Atom           X                Y                Z
 ----------------------------------------------------------------
    1      N       0.9794493034    -0.3946671434     0.0284601180
    2      C       1.7091172430     0.7327161154     0.0363835049
    3      C       3.1110793085     0.6013128742     0.0099228395
    4      C       3.6116513256    -0.7000381756    -0.0193221328
    5      N       2.9095836361    -1.8408435215    -0.0257118922
    6      C       1.6034075609    -1.5914620172    -0.0010218806
    7      N       4.1171587451     1.5391724191     0.0059918215
    8      C       5.2176514832     0.8064754037    -0.0250548361
    9      N       4.9752472687    -0.5395137244    -0.0410992147
   10      N       1.0969168334     1.9244040763     0.0773867409
   11      H       0.9408201354    -2.4477297976    -0.0048788050
   12      H       6.2196916060     1.2014268571    -0.0372263522
   13      H       5.6554377596    -1.2808742472    -0.0649092416
   14      H       0.0834877410     1.9808254925     0.0433157964
   15      H       1.6628644307     2.7518875597     0.0356803772
   16      N      -3.8671866570    -1.5721830180     0.0016342211
   17      C      -4.5694374112    -0.3952227379    -0.0159875512
   18      C      -3.9574195058     0.8098567469    -0.0208683752
   19      C      -2.5019512967     0.8322077003    -0.0065098065
   20      N      -1.8812422547    -0.4032810557     0.0117635219
   21      C      -2.4849901524    -1.6406482888     0.0154968115
   22      C      -4.6870637580     2.1114114057    -0.0400004042
   23      O      -1.8418573221     1.8731033202    -0.0101357816
   24      O      -1.8783389539    -2.6968216733     0.0295165835
   25      H      -4.3404164829    -2.4602464072     0.0041694613
   26      H      -0.8393340648    -0.4092147991     0.0222378794
   27      H      -5.6459050150    -0.4931762850    -0.0259482785
   28      H      -4.4252363380     2.7091516307     0.8316713475
   29      H      -4.4080157266     2.6930405617    -0.9172077752
   30      H      -5.7635807449     1.9533858715    -0.0491570551
 ----------------------------------------------------------------

    8    -916.2757285620      9.87e-06  Convergence criterion met
 Total energy in the final basis set =     -916.2757285620

                    Orbital Energies (a.u.)
 --------------------------------------------------------------

 Alpha MOs
 -- Occupied --
-20.538 -20.535 -15.634 -15.632 -15.605 -15.569 -15.569 -15.557
-15.554 -11.410 -11.378 -11.339 -11.327 -11.324 -11.318 -11.312
-11.256 -11.251 -11.235  -1.427  -1.394  -1.371  -1.304  -1.303
 -1.247  -1.234  -1.187  -1.155  -1.106  -1.034  -0.968  -0.913
 -0.896  -0.890  -0.878  -0.848  -0.779  -0.768  -0.767  -0.738
 -0.706  -0.700  -0.675  -0.673  -0.659  -0.638  -0.638  -0.635
 -0.614  -0.609  -0.592  -0.589  -0.565  -0.559  -0.554  -0.550
 -0.506  -0.496  -0.494  -0.477  -0.456  -0.444  -0.424  -0.419
 -0.411  -0.376  -0.349  -0.303

          Ground-State Mulliken Net Atomic Charges

     Atom                 Charge (a.u.)
  ----------------------------------------
      1 N                    -0.445157
      2 C                     0.494566
      3 C                    -0.325665
      4 C                    -0.182684
      5 N                    -0.285954
      6 C                    -0.035083
      7 N                    -0.290389
      8 C                     0.437380
      9 N                    -0.383446
     10 N                    -0.716413
     11 H                     0.280462
     12 H                     0.252104
     13 H                     0.364018
     14 H                     0.489509
     15 H                     0.328204
     16 N                    -0.593544
     17 C                    -0.191243
     18 C                     0.532573
     19 C                     0.180521
     20 N                    -0.767347
     21 C                     0.493845
     22 C                    -0.693328
     23 O                    -0.432314
     24 O                    -0.412810
     25 H                     0.414348
     26 H                     0.766966
     27 H                     0.232788
     28 H                     0.178407
     29 H                     0.178444
     30 H                     0.131239
  ----------------------------------------
  Sum of atomic charges =    -0.000002

                    Cartesian Multipole Moments
 -----------------------------------------------------------------
    Charge (ESU x 10^10)
                -0.0000
    Dipole Moment (Debye)
         X      -2.1229      Y       0.0740      Z      -0.2103
       Tot       2.1346
    Quadrupole Moments (Debye-Ang)
        XX     -48.8530     XY       2.4029     YY    -123.4092
        XZ      -0.4053     YZ      -0.0847     ZZ    -113.6471

 Total job time:  1960.76s(wall), 1945.62s(cpu)
        *  Thank you very much for using Q-Chem.  Have a nice day.  *
