 Q-Chem 5.0, Q-Chem, Inc., Pleasanton, CA (2017)
 Q-Chem 5.0.2 for Intel X86 EM64T Linux

User input:
--------------------------------------------------------------
$rem
SCF_PRINT                     1
BASIS                         6-311++g**
SCF_SAVE_MATRICES             1
SCF_CONVERGENCE               5
SCF_FINAL_PRINT               1
METHOD                        hf
JOBTYPE                       sp
$end

$molecule
0 1
Cl    0.37773392    -4.83e-07    0.006430557
H    0.049409273    -1.882e-06    1.255616511
O    -0.222171001    7.107e-06    3.082519813
H    -1.034384448    -5.361e-06    3.593737797
C    0.882609855    1.116e-06    3.981271022
H    1.779241003    -4.02e-07    3.370105894
H    0.890969395    0.888981441    4.610910354
H    0.890965051    -0.888981553    4.610907087
$end

--------------------------------------------------------------

             Standard Nuclear Orientation (Angstroms)
    I     Atom           X                Y                Z
 ----------------------------------------------------------------
    1      Cl      1.8279532844    -0.0840078667    -0.0000001045
    2      H       0.5889922968     0.2810103418    -0.0000035273
    3      O      -1.2291080985     0.6063447432     0.0000030867
    4      H      -1.7161529922     1.4332799173    -0.0000121101
    5      C      -2.1600465480    -0.4714530480    -0.0000006007
    6      H      -1.5755873073    -1.3857164812     0.0000009350
    7      H      -2.7896592861    -0.4612394592     0.8889791916
    8      H      -2.7896544698    -0.4612402424    -0.8889838024
 ----------------------------------------------------------------

    7    -575.1836008007      8.72e-06  Convergence criterion met
 Total energy in the final basis set =     -575.1836008007

                    Orbital Energies (a.u.)
 --------------------------------------------------------------

 Alpha MOs
 -- Occupied --
******* -20.592 -11.294 -10.537  -8.006  -8.003  -8.003  -1.393
 -1.083  -0.953  -0.729  -0.647  -0.640  -0.582  -0.524  -0.484
 -0.445  -0.444

          Ground-State Mulliken Net Atomic Charges

     Atom                 Charge (a.u.)
  ----------------------------------------
      1 Cl                   -0.247842
      2 H                     0.239080
      3 O                    -0.437713
      4 H                     0.294657
      5 C                    -0.229317
      6 H                     0.134975
      7 H                     0.123080
      8 H                     0.123080
  ----------------------------------------
  Sum of atomic charges =     0.000000

                    Cartesian Multipole Moments
 -----------------------------------------------------------------
    Charge (ESU x 10^10)
                 0.0000
    Dipole Moment (Debye)
         X      -4.3588      Y       0.6087      Z      -0.0000
       Tot       4.4011
    Quadrupole Moments (Debye-Ang)
        XX     -23.6912     XY      -1.4771     YY     -24.1491
        XZ       0.0001     YZ      -0.0001     ZZ     -27.9269

 Total job time:  23.18s(wall), 20.64s(cpu)
        *  Thank you very much for using Q-Chem.  Have a nice day.  *
