 Q-Chem 5.0, Q-Chem, Inc., Pleasanton, CA (2017)
 Q-Chem 5.0.2 for Intel X86 EM64T Linux

User input:
--------------------------------------------------------------
$rem
SCF_PRINT                     1
BASIS                         6-311++g**
SCF_SAVE_MATRICES             1
SCF_CONVERGENCE               5
SCF_FINAL_PRINT               1
METHOD                        hf
JOBTYPE                       sp
$end

$molecule
0 1
C    -2.018649    0.052883    0.0
O    -1.4522    1.143634    0.0
N    -1.40777    -1.142484    0.0
H    -1.964596    -1.977036    0.0
H    -0.387244    -1.207782    0.0
H    -3.117061    -0.013701    0.0
C    2.018649    -0.052883    0.0
O    1.4522    -1.143634    0.0
N    1.40777    1.142484    0.0
H    1.964596    1.977036    0.0
H    0.387244    1.207782    0.0
H    3.117061    0.013701    0.0
$end

--------------------------------------------------------------

             Standard Nuclear Orientation (Angstroms)
    I     Atom           X                Y                Z
 ----------------------------------------------------------------
    1      C       2.0150245498     0.1319714384    -0.0000000000
    2      O       1.4062545283     1.1996798605    -0.0000000000
    3      N       1.4514722847    -1.0864226940     0.0000000000
    4      H       2.0405839499    -1.8985062370     0.0000000000
    5      H       0.4342902561    -1.1916741369     0.0000000000
    6      H       3.1152023635     0.1084952985    -0.0000000000
    7      C      -2.0150245498    -0.1319714384     0.0000000000
    8      O      -1.4062545283    -1.1996798605     0.0000000000
    9      N      -1.4514722847     1.0864226940    -0.0000000000
   10      H      -2.0405839499     1.8985062370    -0.0000000000
   11      H      -0.4342902561     1.1916741369    -0.0000000000
   12      H      -3.1152023635    -0.1084952985     0.0000000000
 ----------------------------------------------------------------

    9    -337.9892486620      3.26e-06  Convergence criterion met
 Total energy in the final basis set =     -337.9892486620

             Orbital Energies (a.u.) and Symmetries
 --------------------------------------------------------------

 Alpha MOs, Restricted
 -- Occupied --
-20.532 -20.532 -15.583 -15.583 -11.363 -11.363  -1.390  -1.385
  1 Bu    1 Ag    2 Bu    2 Ag    3 Bu    3 Ag    4 Ag    4 Bu
 -1.220  -1.214  -0.862  -0.837  -0.753  -0.743  -0.708  -0.647
  5 Bu    5 Ag    6 Ag    6 Bu    7 Ag    7 Bu    8 Bu    8 Ag
 -0.621  -0.596  -0.576  -0.568  -0.456  -0.431  -0.422  -0.412
  9 Ag    9 Bu    1 Au    1 Bg   10 Ag   10 Bu    2 Bg    2 Au

 Beta MOs, Restricted
 -- Occupied --
-20.532 -20.532 -15.583 -15.583 -11.363 -11.363  -1.390  -1.385
  1 Bu    1 Ag    2 Bu    2 Ag    3 Bu    3 Ag    4 Ag    4 Bu
 -1.220  -1.214  -0.862  -0.837  -0.753  -0.743  -0.708  -0.647
  5 Bu    5 Ag    6 Ag    6 Bu    7 Ag    7 Bu    8 Bu    8 Ag
 -0.621  -0.596  -0.576  -0.568  -0.456  -0.431  -0.422  -0.412
  9 Ag    9 Bu    1 Au    1 Bg   10 Ag   10 Bu    2 Bg    2 Au

          Ground-State Mulliken Net Atomic Charges

     Atom                 Charge (a.u.)
  ----------------------------------------
      1 C                     0.287875
      2 O                    -0.534992
      3 N                    -0.607596
      4 H                     0.284400
      5 H                     0.433266
      6 H                     0.137047
      7 C                     0.287875
      8 O                    -0.534992
      9 N                    -0.607596
     10 H                     0.284400
     11 H                     0.433266
     12 H                     0.137047
  ----------------------------------------
  Sum of atomic charges =    -0.000000

                    Cartesian Multipole Moments
 -----------------------------------------------------------------
    Charge (ESU x 10^10)
                -0.0000
    Dipole Moment (Debye)
         X       0.0000      Y      -0.0000      Z       0.0000
       Tot       0.0000
    Quadrupole Moments (Debye-Ang)
        XX     -22.4915     XY     -12.5858     YY     -37.7338
        XZ       0.0000     YZ      -0.0000     ZZ     -38.0950

 Total job time:  58.03s(wall), 57.61s(cpu)
        *  Thank you very much for using Q-Chem.  Have a nice day.  *
