 Q-Chem 5.0, Q-Chem, Inc., Pleasanton, CA (2017)
 Q-Chem 5.0.2 for Intel X86 EM64T Linux

User input:
--------------------------------------------------------------
$rem
SCF_PRINT                     1
BASIS                         6-311++g**
SCF_SAVE_MATRICES             1
SCF_CONVERGENCE               5
SCF_FINAL_PRINT               1
METHOD                        hf
JOBTYPE                       sp
$end

$molecule
0 1
C    -2.8509e-05    -0.000461929    2.158149022
Cl    -1.454063734    0.838777303    1.616235012
Cl    1.454144531    0.838659727    1.616208515
Cl    -8.74e-05    -1.679795034    1.617802938
H    5.696e-06    0.000267325    3.239305949
C    -2.3095e-05    0.000461919    -1.900304972
H    2.4593e-05    -0.001407092    -2.986061026
H    -0.885500277    -0.510272086    -1.535173451
H    0.885623343    -0.510121803    -1.535137023
H    -9.3238e-05    1.023638315    -1.537792773
$end

--------------------------------------------------------------

             Standard Nuclear Orientation (Angstroms)
    I     Atom           X                Y                Z
 ----------------------------------------------------------------
    1      C       0.9868766097    -0.0003163179    -0.0019051467
    2      Cl      0.4434235368     1.2915236440    -1.0733620934
    3      Cl      0.4433570057    -1.5750041633    -0.5827566995
    4      Cl      0.4496532986     0.2831491357     1.6543472562
    5      H       2.0680303124    -0.0008267504    -0.0045967124
    6      C      -3.0715720888     0.0008503442     0.0046121677
    7      H      -4.1573227928     0.0014737891     0.0084493895
    8      H      -2.7054795010     0.9596621051     0.3580188961
    9      H      -2.7054678667    -0.7861152010     0.6565829574
   10      H      -2.7109625746    -0.1717645787    -1.0045805311
 ----------------------------------------------------------------

    8   -1457.1692791884      2.28e-06  Convergence criterion met
 Total energy in the final basis set =    -1457.1692791884

                    Orbital Energies (a.u.)
 --------------------------------------------------------------

 Alpha MOs
 -- Occupied --
*******-104.866-104.866 -11.438 -11.199 -10.593 -10.593 -10.593
 -8.061  -8.061  -8.061  -8.058  -8.058  -8.058  -8.058  -8.058
 -8.058  -1.250  -1.119  -1.119  -0.938  -0.880  -0.688  -0.631
 -0.631  -0.541  -0.540  -0.540  -0.505  -0.505  -0.471  -0.471
 -0.467  -0.454

          Ground-State Mulliken Net Atomic Charges

     Atom                 Charge (a.u.)
  ----------------------------------------
      1 C                     0.716564
      2 Cl                   -0.315049
      3 Cl                   -0.315085
      4 Cl                   -0.315159
      5 H                     0.285863
      6 C                    -0.521570
      7 H                     0.115340
      8 H                     0.116345
      9 H                     0.116336
     10 H                     0.116415
  ----------------------------------------
  Sum of atomic charges =     0.000000

                    Cartesian Multipole Moments
 -----------------------------------------------------------------
    Charge (ESU x 10^10)
                 0.0000
    Dipole Moment (Debye)
         X       1.3269      Y      -0.0003      Z      -0.0031
       Tot       1.3269
    Quadrupole Moments (Debye-Ang)
        XX     -49.8282     XY      -0.0015     YY     -53.7481
        XZ      -0.0091     YZ      -0.0001     ZZ     -53.7476

 Total job time:  104.32s(wall), 102.56s(cpu)
        *  Thank you very much for using Q-Chem.  Have a nice day.  *
