 Q-Chem 5.0, Q-Chem, Inc., Pleasanton, CA (2017)
 Q-Chem 5.0.2 for Intel X86 EM64T Linux

User input:
--------------------------------------------------------------
$rem
SCF_PRINT                     1
BASIS                         6-311++g**
SCF_SAVE_MATRICES             1
SCF_CONVERGENCE               5
SCF_FINAL_PRINT               1
METHOD                        hf
JOBTYPE                       sp
$end

$molecule
0 1
N    0.065505431    0.069212229    2.980516721
H    1.017174917    0.090660584    3.323272637
C    -0.621666375    -1.143104238    3.441045492
H    -1.635399136    -1.140501949    3.050017598
H    -0.113160069    -2.01096036    3.030175196
H    -0.663681534    -1.241291225    4.525847684
H    -0.392131755    0.896265391    3.341308529
$end

--------------------------------------------------------------

             Standard Nuclear Orientation (Angstroms)
    I     Atom           X                Y                Z
 ----------------------------------------------------------------
    1      N       0.7493972988     0.0000062936     0.1223446687
    2      H       1.1503577212     0.8116905777    -0.3293364391
    3      C      -0.7114763932     0.0000059409    -0.0185493056
    4      H      -1.1112748915    -0.8769544254     0.4831133034
    5      H      -1.1113766172     0.8766998114     0.4835014687
    6      H      -1.0549210336     0.0002067340    -1.0530769720
    7      H       1.1502920888    -0.8117223980    -0.3293182080
 ----------------------------------------------------------------

    7     -95.2457701397      6.46e-06  Convergence criterion met
 Total energy in the final basis set =      -95.2457701397

                    Orbital Energies (a.u.)
 --------------------------------------------------------------

 Alpha MOs
 -- Occupied --
-15.538 -11.242  -1.169  -0.898  -0.663  -0.604  -0.558  -0.520
 -0.389

          Ground-State Mulliken Net Atomic Charges

     Atom                 Charge (a.u.)
  ----------------------------------------
      1 N                    -0.475302
      2 H                     0.220813
      3 C                    -0.304140
      4 H                     0.120655
      5 H                     0.120665
      6 H                     0.096503
      7 H                     0.220806
  ----------------------------------------
  Sum of atomic charges =     0.000000

                    Cartesian Multipole Moments
 -----------------------------------------------------------------
    Charge (ESU x 10^10)
                 0.0000
    Dipole Moment (Debye)
         X      -0.3677      Y      -0.0001      Z      -1.4779
       Tot       1.5229
    Quadrupole Moments (Debye-Ang)
        XX     -14.0268     XY       0.0001     YY     -12.5623
        XZ      -2.2051     YZ       0.0000     ZZ     -15.5769

 Total job time:  8.03s(wall), 7.66s(cpu)
        *  Thank you very much for using Q-Chem.  Have a nice day.  *
