 Q-Chem 5.0, Q-Chem, Inc., Pleasanton, CA (2017)
 Q-Chem 5.0.2 for Intel X86 EM64T Linux

User input:
--------------------------------------------------------------
$rem
SCF_PRINT                     1
BASIS                         6-311++g**
SCF_SAVE_MATRICES             1
SCF_CONVERGENCE               5
SCF_FINAL_PRINT               1
METHOD                        hf
JOBTYPE                       sp
$end

$molecule
0 1
C    0.250211388    -0.141261283    2.278305952
F    0.055015573    -0.060688554    0.911538424
H    1.18931025    0.342978795    2.531275149
H    0.282891774    -1.187166859    2.570525524
H    -0.571443596    0.358513497    2.783864006
C    -0.222998033    0.125060181    -2.031995678
F    -0.353854222    0.228242626    -3.40533891
H    -1.074191041    -0.417537604    -1.631229882
H    0.694086089    -0.408170093    -1.799115801
H    -0.187197902    1.12079354    -1.599918593
$end

--------------------------------------------------------------

             Standard Nuclear Orientation (Angstroms)
    I     Atom           X                Y                Z
 ----------------------------------------------------------------
    1      C       2.8041310545    -0.0210555701     0.0000209127
    2      F       1.4221548213     0.0316844822    -0.0026294078
    3      H       3.1215674390    -1.0106561358    -0.3167019985
    4      H       3.1644308521     0.1788555307     1.0053061296
    5      H       3.1888368815     0.7280182943    -0.6865433318
    6      C      -1.5401628368     0.0038554900     0.0066876217
    7      F      -2.9234445730    -0.0112595082    -0.0053442984
    8      H      -1.1958882153     0.9774575501     0.3430343623
    9      H      -1.1798974166    -0.7659003535     0.6829239838
   10      H      -1.1712510819    -0.1883991712    -0.9965069962
 ----------------------------------------------------------------

    7    -278.1678415706      6.08e-06  Convergence criterion met
 Total energy in the final basis set =     -278.1678415706

                    Orbital Energies (a.u.)
 --------------------------------------------------------------

 Alpha MOs
 -- Occupied --
-26.293 -26.263 -11.319 -11.289  -1.603  -1.573  -0.971  -0.939
 -0.710  -0.710  -0.693  -0.680  -0.680  -0.657  -0.545  -0.545
 -0.515  -0.515

          Ground-State Mulliken Net Atomic Charges

     Atom                 Charge (a.u.)
  ----------------------------------------
      1 C                    -0.146599
      2 F                    -0.240477
      3 H                     0.134955
      4 H                     0.134906
      5 H                     0.135075
      6 C                    -0.223090
      7 F                    -0.263102
      8 H                     0.156079
      9 H                     0.155733
     10 H                     0.156519
  ----------------------------------------
  Sum of atomic charges =    -0.000000

                    Cartesian Multipole Moments
 -----------------------------------------------------------------
    Charge (ESU x 10^10)
                -0.0000
    Dipole Moment (Debye)
         X       4.7472      Y      -0.0590      Z       0.0222
       Tot       4.7477
    Quadrupole Moments (Debye-Ang)
        XX     -25.4984     XY      -0.2223     YY     -23.4845
        XZ      -0.0431     YZ       0.0004     ZZ     -23.4826

 Total job time:  27.88s(wall), 26.43s(cpu)
        *  Thank you very much for using Q-Chem.  Have a nice day.  *
