 Q-Chem 5.0, Q-Chem, Inc., Pleasanton, CA (2017)
 Q-Chem 5.0.2 for Intel X86 EM64T Linux

User input:
--------------------------------------------------------------
$rem
SCF_PRINT                     1
BASIS                         6-311++g**
SCF_SAVE_MATRICES             1
SCF_CONVERGENCE               5
SCF_FINAL_PRINT               1
METHOD                        hf
JOBTYPE                       sp
$end

$molecule
0 1
C    -1.3940633    0.0    -2.4541524
C    -0.6970468    1.2072378    -2.4546277
C    0.6970468    1.2072378    -2.4546277
C    1.3940633    0.0    -2.4541524
C    0.6970468    -1.2072378    -2.4546277
C    -0.6970468    -1.2072378    -2.4546277
H    -2.4753995    0.0    -2.4503221
H    -1.2382321    2.1435655    -2.4536764
H    1.2382321    2.1435655    -2.4536764
H    2.4753995    0.0    -2.4503221
H    1.2382321    -2.1435655    -2.4536764
H    -1.2382321    -2.1435655    -2.4536764
$end

--------------------------------------------------------------

             Standard Nuclear Orientation (Angstroms)
    I     Atom           X                Y                Z
 ----------------------------------------------------------------
    1      C       1.3940633000    -0.0000000000    -0.0000438714
    2      C       0.6970468000     1.2072378000     0.0004314286
    3      C      -0.6970468000     1.2072378000     0.0004314286
    4      C      -1.3940633000     0.0000000000    -0.0000438714
    5      C      -0.6970468000    -1.2072378000     0.0004314286
    6      C       0.6970468000    -1.2072378000     0.0004314286
    7      H       2.4753995000    -0.0000000000    -0.0038741714
    8      H       1.2382321000     2.1435655000    -0.0005198714
    9      H      -1.2382321000     2.1435655000    -0.0005198714
   10      H      -2.4753995000     0.0000000000    -0.0038741714
   11      H      -1.2382321000    -2.1435655000    -0.0005198714
   12      H       1.2382321000    -2.1435655000    -0.0005198714
 ----------------------------------------------------------------

    6    -230.7563310242      6.39e-06  Convergence criterion met
 Total energy in the final basis set =     -230.7563310242

             Orbital Energies (a.u.) and Symmetries
 --------------------------------------------------------------

 Alpha MOs, Restricted
 -- Occupied --
-11.238 -11.238 -11.238 -11.237 -11.237 -11.236  -1.153  -1.017
  1 A1    1 B2    1 B1    1 A2    2 A1    2 B1    3 A1    3 B1
 -1.017  -0.826  -0.826  -0.712  -0.645  -0.621  -0.590  -0.590
  2 B2    2 A2    4 A1    5 A1    4 B1    3 B2    5 B1    4 B2
 -0.502  -0.496  -0.496  -0.337  -0.337
  6 A1    7 A1    3 A2    6 B1    5 B2

 Beta MOs, Restricted
 -- Occupied --
-11.238 -11.238 -11.238 -11.237 -11.237 -11.236  -1.153  -1.017
  1 A1    1 B2    1 B1    1 A2    2 A1    2 B1    3 A1    3 B1
 -1.017  -0.826  -0.826  -0.712  -0.645  -0.621  -0.590  -0.590
  2 B2    2 A2    4 A1    5 A1    4 B1    3 B2    5 B1    4 B2
 -0.502  -0.496  -0.496  -0.337  -0.337
  6 A1    7 A1    3 A2    6 B1    5 B2

          Ground-State Mulliken Net Atomic Charges

     Atom                 Charge (a.u.)
  ----------------------------------------
      1 C                    -0.192285
      2 C                    -0.192754
      3 C                    -0.192754
      4 C                    -0.192285
      5 C                    -0.192754
      6 C                    -0.192754
      7 H                     0.192554
      8 H                     0.192619
      9 H                     0.192619
     10 H                     0.192554
     11 H                     0.192619
     12 H                     0.192619
  ----------------------------------------
  Sum of atomic charges =    -0.000000

                    Cartesian Multipole Moments
 -----------------------------------------------------------------
    Charge (ESU x 10^10)
                -0.0000
    Dipole Moment (Debye)
         X      -0.0000      Y      -0.0000      Z      -0.0085
       Tot       0.0085
    Quadrupole Moments (Debye-Ang)
        XX     -31.9134     XY      -0.0000     YY     -31.9229
        XZ       0.0000     YZ      -0.0000     ZZ     -41.3074

 Total job time:  30.61s(wall), 29.56s(cpu)
        *  Thank you very much for using Q-Chem.  Have a nice day.  *
