 Q-Chem 5.0, Q-Chem, Inc., Pleasanton, CA (2017)
 Q-Chem 5.0.2 for Intel X86 EM64T Linux

User input:
--------------------------------------------------------------
$rem
SCF_PRINT                     1
BASIS                         6-311++g**
SCF_SAVE_MATRICES             1
SCF_CONVERGENCE               5
SCF_FINAL_PRINT               1
METHOD                        hf
JOBTYPE                       sp
$end

$molecule
0 1
C    2.018649    -0.052883    0.0
O    1.4522    -1.143634    0.0
N    1.40777    1.142484    0.0
H    1.964596    1.977036    0.0
H    0.387244    1.207782    0.0
H    3.117061    0.013701    0.0
$end

--------------------------------------------------------------

             Standard Nuclear Orientation (Angstroms)
    I     Atom           X                Y                Z
 ----------------------------------------------------------------
    1      C      -0.1465100455    -0.3839002197    -0.0000000000
    2      O      -1.2040927917     0.2422953955     0.0000000000
    3      N       1.0809609665     0.1595980157    -0.0000000000
    4      H       1.8832755430    -0.4427503514    -0.0000000000
    5      H       1.2028772060     1.1749174610     0.0000000000
    6      H      -0.1410769080    -1.4843150650    -0.0000000000
 ----------------------------------------------------------------

    9    -168.9846155727      5.01e-06  Convergence criterion met
 Total energy in the final basis set =     -168.9846155727

             Orbital Energies (a.u.) and Symmetries
 --------------------------------------------------------------

 Alpha MOs, Restricted
 -- Occupied --
-20.528 -15.604 -11.361  -1.379  -1.229  -0.857  -0.758  -0.679
  1 A'    2 A'    3 A'    4 A'    5 A'    6 A'    7 A'    8 A'
 -0.604  -0.572  -0.436  -0.422
  9 A'    1 A"   10 A'    2 A"

 Beta MOs, Restricted
 -- Occupied --
-20.528 -15.604 -11.361  -1.379  -1.229  -0.857  -0.758  -0.679
  1 A'    2 A'    3 A'    4 A'    5 A'    6 A'    7 A'    8 A'
 -0.604  -0.572  -0.436  -0.422
  9 A'    1 A"   10 A'    2 A"

          Ground-State Mulliken Net Atomic Charges

     Atom                 Charge (a.u.)
  ----------------------------------------
      1 C                     0.239521
      2 O                    -0.462362
      3 N                    -0.446974
      4 H                     0.265092
      5 H                     0.297282
      6 H                     0.107440
  ----------------------------------------
  Sum of atomic charges =    -0.000000

                    Cartesian Multipole Moments
 -----------------------------------------------------------------
    Charge (ESU x 10^10)
                -0.0000
    Dipole Moment (Debye)
         X       4.4129      Y      -1.2707      Z       0.0000
       Tot       4.5923
    Quadrupole Moments (Debye-Ang)
        XX     -18.8773     XY       1.4157     YY     -14.8711
        XZ       0.0000     YZ      -0.0000     ZZ     -19.1176

 Total job time:  12.64s(wall), 12.07s(cpu)
        *  Thank you very much for using Q-Chem.  Have a nice day.  *
