 Q-Chem 5.0, Q-Chem, Inc., Pleasanton, CA (2017)
 Q-Chem 5.0.2 for Intel X86 EM64T Linux

User input:
--------------------------------------------------------------
$rem
SCF_PRINT                     1
BASIS                         6-311++g**
SCF_SAVE_MATRICES             1
SCF_CONVERGENCE               5
SCF_FINAL_PRINT               1
METHOD                        hf
JOBTYPE                       sp
$end

$molecule
0 1
C    -0.45374374    0.000182739    1.059200327
C    0.583994572    -2.8402e-05    1.98824481
C    1.911123808    -0.00014276    1.563951774
C    2.200015462    -6.0948e-05    0.200857138
C    1.171852556    0.000151689    -0.738466754
H    -1.486276324    0.000268975    1.377240603
H    0.351319424    -0.000103142    3.044291019
H    2.712830438    -0.00029039    2.288837764
H    3.227238082    -0.000162856    -0.136887263
H    1.3832747    0.000214894    -1.797905634
C    -0.149841459    0.000281008    -0.299799844
Cl    -1.432288391    0.000559697    -1.466414983
$end

--------------------------------------------------------------

             Standard Nuclear Orientation (Angstroms)
    I     Atom           X                Y                Z
 ----------------------------------------------------------------
    1      C      -0.1756027246    -1.2129890056     0.0000085398
    2      C      -1.5684186031    -1.2035853620     0.0000011942
    3      C      -2.2660588116     0.0024804497    -0.0000100833
    4      C      -1.5639563866     1.2060325116     0.0000019488
    5      C      -0.1713233341     1.2106759752     0.0000075803
    6      H       0.3752850723    -2.1423951583     0.0000212016
    7      H      -2.1058064594    -2.1419805972     0.0000043380
    8      H      -3.3468869026     0.0044497550    -0.0000319275
    9      H      -2.0976703308     2.1464616836     0.0000075027
   10      H       0.3840829220     2.1373010115     0.0000189550
   11      C       0.5126323311    -0.0023814809     0.0000018456
   12      Cl      2.2463153454    -0.0003079543    -0.0000050718
 ----------------------------------------------------------------

    8    -689.6800124773      5.29e-06  Convergence criterion met
 Total energy in the final basis set =     -689.6800124773

                    Orbital Energies (a.u.)
 --------------------------------------------------------------

 Alpha MOs
 -- Occupied --
******* -11.308 -11.254 -11.254 -11.253 -11.253 -11.249 -10.566
 -8.035  -8.032  -8.031  -1.195  -1.124  -1.035  -1.000  -0.850
 -0.823  -0.715  -0.651  -0.651  -0.607  -0.593  -0.546  -0.520
 -0.515  -0.471  -0.456  -0.353  -0.338

          Ground-State Mulliken Net Atomic Charges

     Atom                 Charge (a.u.)
  ----------------------------------------
      1 C                    -0.339580
      2 C                    -0.451002
      3 C                    -0.210861
      4 C                    -0.455922
      5 C                    -0.341928
      6 H                     0.212430
      7 H                     0.211637
      8 H                     0.195215
      9 H                     0.211569
     10 H                     0.212800
     11 C                     0.536113
     12 Cl                    0.219529
  ----------------------------------------
  Sum of atomic charges =     0.000000

                    Cartesian Multipole Moments
 -----------------------------------------------------------------
    Charge (ESU x 10^10)
                 0.0000
    Dipole Moment (Debye)
         X      -1.9751      Y       0.0007      Z       0.0000
       Tot       1.9751
    Quadrupole Moments (Debye-Ang)
        XX     -46.6744     XY       0.0136     YY     -42.4562
        XZ       0.0001     YZ       0.0000     ZZ     -52.7837

 Total job time:  192.64s(wall), 185.70s(cpu)
        *  Thank you very much for using Q-Chem.  Have a nice day.  *
