 Q-Chem 5.0, Q-Chem, Inc., Pleasanton, CA (2017)
 Q-Chem 5.0.2 for Intel X86 EM64T Linux

User input:
--------------------------------------------------------------
$rem
SCF_PRINT                     1
BASIS                         6-311++g**
SCF_SAVE_MATRICES             1
SCF_CONVERGENCE               5
SCF_FINAL_PRINT               1
METHOD                        hf
JOBTYPE                       sp
$end

$molecule
0 1
O    -3.785037609    0.000866982    -3.641619578
C    -4.942504639    0.030472744    -3.262526217
C    -5.268278522    0.030763181    -1.784860352
C    -6.074813789    0.067570401    -4.266102134
H    -5.949425709    0.944115224    -4.899332013
H    -5.998004094    -0.807301293    -4.909325767
H    -7.056301133    0.092128453    -3.803511947
H    -6.334373655    0.058880289    -1.583055978
H    -4.834292873    -0.858956293    -1.331613097
H    -4.786131398    0.889881839    -1.321375004
$end

--------------------------------------------------------------

             Standard Nuclear Orientation (Angstroms)
    I     Atom           X                Y                Z
 ----------------------------------------------------------------
    1      O       0.0039560663    -1.3756539102    -0.0000013425
    2      C      -0.0003585993    -0.1573355666    -0.0000177422
    3      C      -1.3060742330     0.6073420118     0.0000090093
    4      C       1.3032160964     0.6116624052     0.0000075935
    5      H       1.8794631991     0.3188535858     0.8759273096
    6      H       1.8792745919     0.3193113845    -0.8761912097
    7      H       1.1652701630     1.6881757733     0.0002782170
    8      H      -1.1698300751     1.6841483723    -0.0000254434
    9      H      -1.8832870355     0.3123889678    -0.8747512107
   10      H      -1.8832389590     0.3123400959     0.8747799132
 ----------------------------------------------------------------

    9    -192.0122253812      1.87e-06  Convergence criterion met
 Total energy in the final basis set =     -192.0122253812

                    Orbital Energies (a.u.)
 --------------------------------------------------------------

 Alpha MOs
 -- Occupied --
-20.543 -11.338 -11.236 -11.236  -1.385  -1.041  -0.974  -0.744
 -0.644  -0.639  -0.621  -0.569  -0.568  -0.537  -0.479  -0.414

          Ground-State Mulliken Net Atomic Charges

     Atom                 Charge (a.u.)
  ----------------------------------------
      1 O                    -0.353846
      2 C                     0.428020
      3 C                    -0.515275
      4 C                    -0.513911
      5 H                     0.173352
      6 H                     0.173353
      7 H                     0.130494
      8 H                     0.130567
      9 H                     0.173626
     10 H                     0.173620
  ----------------------------------------
  Sum of atomic charges =     0.000000

                    Cartesian Multipole Moments
 -----------------------------------------------------------------
    Charge (ESU x 10^10)
                 0.0000
    Dipole Moment (Debye)
         X      -0.0152      Y       3.4217      Z      -0.0001
       Tot       3.4217
    Quadrupole Moments (Debye-Ang)
        XX     -23.1944     XY       0.0175     YY     -30.2076
        XZ      -0.0001     YZ      -0.0002     ZZ     -24.2261

 Total job time:  51.73s(wall), 51.10s(cpu)
        *  Thank you very much for using Q-Chem.  Have a nice day.  *
