 Q-Chem 5.0, Q-Chem, Inc., Pleasanton, CA (2017)
 Q-Chem 5.0.2 for Intel X86 EM64T Linux

User input:
--------------------------------------------------------------
$rem
SCF_PRINT                     1
BASIS                         6-311++g**
SCF_SAVE_MATRICES             1
SCF_CONVERGENCE               5
SCF_FINAL_PRINT               1
METHOD                        hf
JOBTYPE                       sp
$end

$molecule
0 1
C    0.092348417    -0.047899443    -0.084180609
Br    1.850295174    0.401756602    0.541215366
F    -0.041248424    -1.365231569    -0.186834437
F    -0.830122197    0.403465307    0.756154716
F    -0.127685037    0.489606579    -1.278313038
O    4.695578043    0.845065122    1.191773039
C    5.385158396    0.226244432    0.410437893
H    6.482742329    0.244130452    0.468348711
H    4.945821455    -0.382680577    -0.393692603
$end

--------------------------------------------------------------

             Standard Nuclear Orientation (Angstroms)
    I     Atom           X                Y                Z
 ----------------------------------------------------------------
    1      C       1.6058528699    -0.1232784782    -0.0002927478
    2      Br     -0.2729533443     0.2688614486     0.0006932069
    3      F       1.9033973137    -0.9684025695    -0.9805898604
    4      F       2.3127341310     0.9863016298    -0.1734877139
    5      F       1.9659188876    -0.6755356496     1.1523755402
    6      O      -3.2193727495     0.4532314486    -0.0009579847
    7      C      -3.6895625868    -0.6638475121    -0.0000457043
    8      H      -4.7755860252    -0.8338643388    -0.0034269054
    9      H      -3.0522596183    -1.5606527079     0.0041775620
 ----------------------------------------------------------------

    9   -3022.5464319275      5.30e-06  Convergence criterion met
 Total energy in the final basis set =    -3022.5464319275

                    Orbital Energies (a.u.)
 --------------------------------------------------------------

 Alpha MOs
 -- Occupied --
******* -65.190 -58.550 -58.548 -58.548 -26.365 -26.365 -26.364
-20.594 -11.568 -11.360  -9.870  -7.485  -7.475  -7.475  -3.225
 -3.220  -3.220  -3.208  -3.208  -1.764  -1.664  -1.664  -1.422
 -1.093  -0.962  -0.887  -0.854  -0.854  -0.809  -0.733  -0.733
 -0.711  -0.688  -0.688  -0.671  -0.669  -0.552  -0.550  -0.459
 -0.449  -0.448

          Ground-State Mulliken Net Atomic Charges

     Atom                 Charge (a.u.)
  ----------------------------------------
      1 C                     0.159668
      2 Br                    0.138500
      3 F                    -0.115077
      4 F                    -0.105610
      5 F                    -0.113922
      6 O                    -0.297082
      7 C                     0.115795
      8 H                     0.116436
      9 H                     0.101292
  ----------------------------------------
  Sum of atomic charges =     0.000000

                    Cartesian Multipole Moments
 -----------------------------------------------------------------
    Charge (ESU x 10^10)
                 0.0000
    Dipole Moment (Debye)
         X      -2.7206      Y      -2.4913      Z       0.0026
       Tot       3.6890
    Quadrupole Moments (Debye-Ang)
        XX     -41.7687     XY       9.5856     YY     -51.0026
        XZ      -0.0073     YZ      -0.0023     ZZ     -51.8587

 Total job time:  155.88s(wall), 141.38s(cpu)
        *  Thank you very much for using Q-Chem.  Have a nice day.  *
