 Q-Chem 5.0, Q-Chem, Inc., Pleasanton, CA (2017)
 Q-Chem 5.0.2 for Intel X86 EM64T Linux

User input:
--------------------------------------------------------------
$rem
SCF_PRINT                     1
BASIS                         6-311++g**
SCF_SAVE_MATRICES             1
SCF_CONVERGENCE               5
SCF_FINAL_PRINT               1
METHOD                        hf
JOBTYPE                       sp
$end

$molecule
0 1
Br    -0.268325907    -3.194209024    1.99445895
C    0.049999933    -5.089197474    1.929391171
F    0.078949601    -5.512441335    0.671851563
F    1.211983937    -5.3839963    2.498664481
F    -0.909987405    -5.743747328    2.570721738
$end

--------------------------------------------------------------

             Standard Nuclear Orientation (Angstroms)
    I     Atom           X                Y                Z
 ----------------------------------------------------------------
    1      Br      1.1173710051     0.0001226213     0.0000256725
    2      C      -0.8052694625     0.0000043203     0.0000032719
    3      F      -1.2698198232     0.8508988780    -0.9063910843
    4      F      -1.2688709467    -1.2106471910    -0.2838661642
    5      F      -1.2697946082     0.3592685721     1.1901552299
 ----------------------------------------------------------------

    8   -2908.6432512138      3.87e-06  Convergence criterion met
 Total energy in the final basis set =    -2908.6432512138

                    Orbital Energies (a.u.)
 --------------------------------------------------------------

 Alpha MOs
 -- Occupied --
******* -65.204 -58.564 -58.562 -58.562 -26.376 -26.376 -26.376
-11.584  -9.884  -7.499  -7.489  -7.489  -3.239  -3.234  -3.234
 -3.222  -3.222  -1.776  -1.675  -1.675  -1.106  -0.974  -0.865
 -0.865  -0.820  -0.744  -0.744  -0.698  -0.698  -0.681  -0.564
 -0.462  -0.462

          Ground-State Mulliken Net Atomic Charges

     Atom                 Charge (a.u.)
  ----------------------------------------
      1 Br                    0.099925
      2 C                     0.222138
      3 F                    -0.107382
      4 F                    -0.107319
      5 F                    -0.107362
  ----------------------------------------
  Sum of atomic charges =     0.000000

                    Cartesian Multipole Moments
 -----------------------------------------------------------------
    Charge (ESU x 10^10)
                 0.0000
    Dipole Moment (Debye)
         X       0.9202      Y       0.0001      Z       0.0001
       Tot       0.9202
    Quadrupole Moments (Debye-Ang)
        XX     -37.5831     XY       0.0002     YY     -40.0358
        XZ      -0.0000     YZ       0.0001     ZZ     -40.0357

 Total job time:  61.71s(wall), 56.85s(cpu)
        *  Thank you very much for using Q-Chem.  Have a nice day.  *
