 Q-Chem 5.0, Q-Chem, Inc., Pleasanton, CA (2017)
 Q-Chem 5.0.2 for Intel X86 EM64T Linux

User input:
--------------------------------------------------------------
$rem
SCF_PRINT                     1
BASIS                         6-311++g**
SCF_SAVE_MATRICES             1
SCF_CONVERGENCE               5
SCF_FINAL_PRINT               1
METHOD                        hf
JOBTYPE                       sp
$end

$molecule
0 1
C    -0.7097741    -0.990423    1.2077018
C    -1.406534    -0.9653529    0.0
C    -0.7097741    -0.990423    -1.2077018
C    0.6839651    -1.0405105    -1.2078652
C    1.3809779    -1.0655522    0.0
C    0.6839651    -1.0405105    1.2078652
H    -1.2499482    -0.968628    2.1440507
H    -2.4869197    -0.923706    0.0
H    -1.2499482    -0.968628    -2.1440507
H    1.2242882    -1.0580753    -2.1442563
H    2.4615886    -1.1029818    0.0
H    1.2242882    -1.0580753    2.1442563
$end

--------------------------------------------------------------

             Standard Nuclear Orientation (Angstroms)
    I     Atom           X                Y                Z
 ----------------------------------------------------------------
    1      C      -0.6973629837    -0.0003744637     1.2077018000
    2      C      -1.3945737602    -0.0004102936     0.0000000000
    3      C      -0.6973629837    -0.0003744637    -1.2077018000
    4      C       0.6972759293    -0.0002422377    -1.2078652000
    5      C       1.3947384192    -0.0001689195    -0.0000000000
    6      C       0.6972759293    -0.0002422377     1.2078652000
    7      H      -1.2379715786     0.0019552384     2.1440507000
    8      H      -2.4757584564     0.0023059203     0.0000000000
    9      H      -1.2379715786     0.0019552384    -2.1440507000
   10      H       1.2378811020     0.0016608822    -2.1442563000
   11      H       2.4759961084     0.0013375335    -0.0000000000
   12      H       1.2378811020     0.0016608822     2.1442563000
 ----------------------------------------------------------------

    6    -230.7562825454      6.40e-06  Convergence criterion met
 Total energy in the final basis set =     -230.7562825454

             Orbital Energies (a.u.) and Symmetries
 --------------------------------------------------------------

 Alpha MOs, Restricted
 -- Occupied --
-11.239 -11.238 -11.238 -11.237 -11.237 -11.236  -1.152  -1.017
  1 A'    1 A"    2 A'    2 A"    3 A'    4 A'    5 A'    3 A"
 -1.017  -0.826  -0.826  -0.711  -0.646  -0.621  -0.590  -0.590
  6 A'    4 A"    7 A'    8 A'    9 A'    5 A"    6 A"   10 A'
 -0.502  -0.496  -0.496  -0.337  -0.337
 11 A'    7 A"   12 A'    8 A"   13 A'

 Beta MOs, Restricted
 -- Occupied --
-11.239 -11.238 -11.238 -11.237 -11.237 -11.236  -1.152  -1.017
  1 A'    1 A"    2 A'    2 A"    3 A'    4 A'    5 A'    3 A"
 -1.017  -0.826  -0.826  -0.711  -0.646  -0.621  -0.590  -0.590
  6 A'    4 A"    7 A'    8 A'    9 A'    5 A"    6 A"   10 A'
 -0.502  -0.496  -0.496  -0.337  -0.337
 11 A'    7 A"   12 A'    8 A"   13 A'

          Ground-State Mulliken Net Atomic Charges

     Atom                 Charge (a.u.)
  ----------------------------------------
      1 C                    -0.191259
      2 C                    -0.194084
      3 C                    -0.191259
      4 C                    -0.193888
      5 C                    -0.191520
      6 C                    -0.193888
      7 H                     0.192689
      8 H                     0.192558
      9 H                     0.192689
     10 H                     0.192636
     11 H                     0.192691
     12 H                     0.192636
  ----------------------------------------
  Sum of atomic charges =    -0.000000

                    Cartesian Multipole Moments
 -----------------------------------------------------------------
    Charge (ESU x 10^10)
                -0.0000
    Dipole Moment (Debye)
         X      -0.0002      Y       0.0094      Z      -0.0000
       Tot       0.0094
    Quadrupole Moments (Debye-Ang)
        XX     -31.9140     XY      -0.0038     YY     -41.3179
        XZ       0.0000     YZ       0.0000     ZZ     -31.9145

 Total job time:  48.75s(wall), 48.40s(cpu)
        *  Thank you very much for using Q-Chem.  Have a nice day.  *
