 Q-Chem 5.0, Q-Chem, Inc., Pleasanton, CA (2017)
 Q-Chem 5.0.2 for Intel X86 EM64T Linux

User input:
--------------------------------------------------------------
$rem
SCF_PRINT                     1
BASIS                         6-311++g**
SCF_SAVE_MATRICES             1
SCF_CONVERGENCE               5
SCF_FINAL_PRINT               1
METHOD                        hf
JOBTYPE                       sp
$end

$molecule
0 1
O    -0.822589646    0.130751992    -0.00467018
H    0.151322978    0.236946671    -0.005208468
C    -1.09449506    -1.17158663    -0.000235811
F    -2.408360005    -1.348046797    0.002362133
F    -0.590968467    -1.812045684    -1.074390844
F    -0.58752505    -1.805322781    1.076316471
O    1.902892753    0.321317956    -0.0058889
H    2.357570941    -0.049824215    -0.765819097
H    2.357578038    -0.050794037    0.753566975
$end

--------------------------------------------------------------

             Standard Nuclear Orientation (Angstroms)
    I     Atom           X                Y                Z
 ----------------------------------------------------------------
    1      O      -0.1537018545    -1.0945099648     0.0021731754
    2      H      -1.0775918106    -0.7686104690     0.0016570273
    3      C       0.6552165107    -0.0382501985     0.0000545330
    4      F       1.9159729682    -0.4479738144     0.0024518154
    5      F       0.4767174627     0.7518278353    -1.0776516677
    6      F       0.4744491886     0.7577323361     1.0730596103
    7      O      -2.6930387958    -0.0863749688     0.0004679595
    8      H      -2.9435493097     0.4413186183    -0.7616059415
    9      H      -2.9404893177     0.4495952980     0.7577548153
 ----------------------------------------------------------------

    8    -487.8381198454      4.23e-06  Convergence criterion met
 Total energy in the final basis set =     -487.8381198454

                    Orbital Energies (a.u.)
 --------------------------------------------------------------

 Alpha MOs
 -- Occupied --
-26.341 -26.340 -26.339 -20.619 -20.607 -11.558  -1.744  -1.642
 -1.636  -1.442  -1.408  -0.965  -0.858  -0.838  -0.826  -0.771
 -0.726  -0.715  -0.694  -0.663  -0.662  -0.648  -0.638  -0.605
 -0.561  -0.549

          Ground-State Mulliken Net Atomic Charges

     Atom                 Charge (a.u.)
  ----------------------------------------
      1 O                    -0.495762
      2 H                     0.495254
      3 C                     0.741277
      4 F                    -0.219120
      5 F                    -0.251847
      6 F                    -0.252026
      7 O                    -0.596928
      8 H                     0.289583
      9 H                     0.289568
  ----------------------------------------
  Sum of atomic charges =    -0.000000

                    Cartesian Multipole Moments
 -----------------------------------------------------------------
    Charge (ESU x 10^10)
                -0.0000
    Dipole Moment (Debye)
         X      -4.0505      Y       1.8586      Z      -0.0085
       Tot       4.4565
    Quadrupole Moments (Debye-Ang)
        XX     -25.2888     XY      -4.9895     YY     -35.2933
        XZ       0.0321     YZ       0.0149     ZZ     -32.2669

 Total job time:  52.99s(wall), 48.61s(cpu)
        *  Thank you very much for using Q-Chem.  Have a nice day.  *
