 Q-Chem 5.0, Q-Chem, Inc., Pleasanton, CA (2017)
 Q-Chem 5.0.2 for Intel X86 EM64T Linux

User input:
--------------------------------------------------------------
$rem
SCF_PRINT                     1
BASIS                         6-311++g**
SCF_SAVE_MATRICES             1
SCF_CONVERGENCE               5
SCF_FINAL_PRINT               1
METHOD                        hf
JOBTYPE                       sp
$end

$molecule
0 1
C    0.0    -0.667578    -2.124659
C    0.0    0.667578    -2.124659
H    0.923621    -1.232253    -2.126185
H    -0.923621    -1.232253    -2.126185
H    -0.923621    1.232253    -2.126185
H    0.923621    1.232253    -2.126185
$end

--------------------------------------------------------------

             Standard Nuclear Orientation (Angstroms)
    I     Atom           X                Y                Z
 ----------------------------------------------------------------
    1      C      -0.6675780000    -0.0000000000    -0.0003815000
    2      C       0.6675780000     0.0000000000    -0.0003815000
    3      H      -1.2322530000     0.9236210000     0.0011445000
    4      H      -1.2322530000    -0.9236210000     0.0011445000
    5      H       1.2322530000    -0.9236210000     0.0011445000
    6      H       1.2322530000     0.9236210000     0.0011445000
 ----------------------------------------------------------------

    7     -78.0556575319      3.01e-06  Convergence criterion met
 Total energy in the final basis set =      -78.0556575319

             Orbital Energies (a.u.) and Symmetries
 --------------------------------------------------------------

 Alpha MOs, Restricted
 -- Occupied --
-11.234 -11.232  -1.035  -0.794  -0.645  -0.589  -0.509  -0.376
  1 A1    1 B1    2 A1    2 B1    1 B2    3 A1    1 A2    4 A1

 Beta MOs, Restricted
 -- Occupied --
-11.234 -11.232  -1.035  -0.794  -0.645  -0.589  -0.509  -0.376
  1 A1    1 B1    2 A1    2 B1    1 B2    3 A1    1 A2    4 A1

          Ground-State Mulliken Net Atomic Charges

     Atom                 Charge (a.u.)
  ----------------------------------------
      1 C                    -0.224645
      2 C                    -0.224645
      3 H                     0.112322
      4 H                     0.112322
      5 H                     0.112322
      6 H                     0.112322
  ----------------------------------------
  Sum of atomic charges =     0.000000

                    Cartesian Multipole Moments
 -----------------------------------------------------------------
    Charge (ESU x 10^10)
                 0.0000
    Dipole Moment (Debye)
         X      -0.0000      Y       0.0000      Z       0.0050
       Tot       0.0050
    Quadrupole Moments (Debye-Ang)
        XX     -12.2224     XY      -0.0000     YY     -12.3826
        XZ       0.0000     YZ       0.0000     ZZ     -16.1880

 Total job time:  2.92s(wall), 2.87s(cpu)
        *  Thank you very much for using Q-Chem.  Have a nice day.  *
