 Q-Chem 5.0, Q-Chem, Inc., Pleasanton, CA (2017)
 Q-Chem 5.0.2 for Intel X86 EM64T Linux

User input:
--------------------------------------------------------------
$rem
SCF_PRINT                     1
BASIS                         6-311++g**
SCF_SAVE_MATRICES             1
SCF_CONVERGENCE               5
SCF_FINAL_PRINT               1
METHOD                        hf
JOBTYPE                       sp
$end

$molecule
0 1
C    1.888896    0.179692    0.0
O    1.49328    -1.073689    0.0
O    1.170435    1.16659    0.0
H    2.979488    0.258829    0.0
H    0.498833    -1.107195    0.0
$end

--------------------------------------------------------------

             Standard Nuclear Orientation (Angstroms)
    I     Atom           X                Y                Z
 ----------------------------------------------------------------
    1      C       0.1132795969    -0.3922517410     0.0000000000
    2      O      -1.1109723977     0.0859563772     0.0000000000
    3      O       1.1458334488     0.2588906503    -0.0000000000
    4      H       0.1196116569    -1.4856928598     0.0000000000
    5      H      -1.0781776474     1.0804270867     0.0000000000
 ----------------------------------------------------------------

    9    -188.8201727274      6.47e-06  Convergence criterion met
 Total energy in the final basis set =     -188.8201727274

             Orbital Energies (a.u.) and Symmetries
 --------------------------------------------------------------

 Alpha MOs, Restricted
 -- Occupied --
-20.640 -20.564 -11.402  -1.487  -1.373  -0.905  -0.735  -0.714
  1 A'    2 A'    3 A'    4 A'    5 A'    6 A'    7 A'    8 A'
 -0.646  -0.598  -0.492  -0.472
  1 A"    9 A'    2 A"   10 A'

 Beta MOs, Restricted
 -- Occupied --
-20.640 -20.564 -11.402  -1.487  -1.373  -0.905  -0.735  -0.714
  1 A'    2 A'    3 A'    4 A'    5 A'    6 A'    7 A'    8 A'
 -0.646  -0.598  -0.492  -0.472
  1 A"    9 A'    2 A"   10 A'

          Ground-State Mulliken Net Atomic Charges

     Atom                 Charge (a.u.)
  ----------------------------------------
      1 C                     0.204427
      2 O                    -0.248422
      3 O                    -0.406199
      4 H                     0.146220
      5 H                     0.303973
  ----------------------------------------
  Sum of atomic charges =     0.000000

                    Cartesian Multipole Moments
 -----------------------------------------------------------------
    Charge (ESU x 10^10)
                 0.0000
    Dipole Moment (Debye)
         X      -2.0204      Y      -0.3133      Z      -0.0000
       Tot       2.0445
    Quadrupole Moments (Debye-Ang)
        XX     -22.2181     XY      -3.2704     YY     -13.3055
        XZ      -0.0000     YZ      -0.0000     ZZ     -17.0641

 Total job time:  10.22s(wall), 10.06s(cpu)
        *  Thank you very much for using Q-Chem.  Have a nice day.  *
