 Q-Chem 5.0, Q-Chem, Inc., Pleasanton, CA (2017)
 Q-Chem 5.0.2 for Intel X86 EM64T Linux

User input:
--------------------------------------------------------------
$rem
SCF_PRINT                     1
BASIS                         6-311++g**
SCF_SAVE_MATRICES             1
SCF_CONVERGENCE               5
SCF_FINAL_PRINT               1
METHOD                        hf
JOBTYPE                       sp
$end

$molecule
0 1
C    -0.189833176    -0.645396435    0.069807761
C    1.121636324    -0.354065576    0.439096514
C    1.486520953    0.962572632    0.712107225
C    0.54932939    1.989209324    0.617868956
C    -0.757627135    1.68186263    0.246856908
C    -1.13819046    0.370551816    -0.028582325
Br    -2.038462778    3.070459841    0.115165429
H    1.852935245    -1.146434699    0.514119204
H    0.825048723    3.012176989    0.829385472
H    2.502259769    1.196433556    1.000317333
H    -2.157140187    0.151608161    -0.313181471
H    -0.480820487    -1.664983631    -0.142918416
$end

--------------------------------------------------------------

             Standard Nuclear Orientation (Angstroms)
    I     Atom           X                Y                Z
 ----------------------------------------------------------------
    1      C       2.1716082156    -1.2049154215    -0.0001271853
    2      C       2.8708311777     0.0001933494    -0.0005760874
    3      C       2.1712880190     1.2051211311    -0.0001054126
    4      C       0.7780432470     1.2129051566     0.0003290785
    5      C       0.0934960891    -0.0002075516     0.0001444050
    6      C       0.7783583758    -1.2131357586     0.0004257568
    7      Br     -1.8001999486    -0.0000019416    -0.0001368296
    8      H       3.9516990323     0.0003361072    -0.0006364955
    9      H       0.2292259700     2.1435071348     0.0019980604
   10      H       2.7069619680     2.1445541002     0.0005709404
   11      H       0.2298259479    -2.1438887617     0.0020279167
   12      H       2.7075345357    -2.1442060587     0.0002852829
 ----------------------------------------------------------------

    8   -2802.5397328632      5.32e-06  Convergence criterion met
 Total energy in the final basis set =    -2802.5397328632

                    Orbital Energies (a.u.)
 --------------------------------------------------------------

 Alpha MOs
 -- Occupied --
******* -65.160 -58.520 -58.518 -58.518 -11.304 -11.256 -11.256
-11.254 -11.254 -11.250  -9.840  -7.454  -7.445  -7.445  -3.193
 -3.189  -3.189  -3.179  -3.179  -1.179  -1.075  -1.036  -0.977
 -0.849  -0.821  -0.714  -0.648  -0.647  -0.608  -0.578  -0.534
 -0.518  -0.496  -0.440  -0.417  -0.354  -0.336

          Ground-State Mulliken Net Atomic Charges

     Atom                 Charge (a.u.)
  ----------------------------------------
      1 C                    -0.128722
      2 C                    -0.376437
      3 C                    -0.128746
      4 C                    -0.410597
      5 C                     0.708765
      6 C                    -0.410771
      7 Br                   -0.380471
      8 H                     0.206916
      9 H                     0.256729
     10 H                     0.203307
     11 H                     0.256722
     12 H                     0.203306
  ----------------------------------------
  Sum of atomic charges =     0.000000

                    Cartesian Multipole Moments
 -----------------------------------------------------------------
    Charge (ESU x 10^10)
                 0.0000
    Dipole Moment (Debye)
         X       2.0489      Y       0.0001      Z       0.0032
       Tot       2.0489
    Quadrupole Moments (Debye-Ang)
        XX     -49.4966     XY      -0.0007     YY     -48.3733
        XZ       0.0021     YZ       0.0007     ZZ     -58.7995

 Total job time:  265.88s(wall), 261.70s(cpu)
        *  Thank you very much for using Q-Chem.  Have a nice day.  *
