 Q-Chem 5.0, Q-Chem, Inc., Pleasanton, CA (2017)
 Q-Chem 5.0.2 for Intel X86 EM64T Linux

User input:
--------------------------------------------------------------
$rem
SCF_PRINT                     1
BASIS                         6-311++g**
SCF_SAVE_MATRICES             1
SCF_CONVERGENCE               5
SCF_FINAL_PRINT               1
METHOD                        hf
JOBTYPE                       sp
$end

$molecule
0 1
C    -1.2471894    -1.1718212    -0.6961388
C    -1.2471894    -1.1718212    0.6961388
N    -0.258951    -1.7235771    1.4144796
C    0.7315327    -2.2652221    0.6967288
C    0.7315327    -2.2652221    -0.6967288
N    -0.258951    -1.7235771    -1.4144796
H    -2.0634363    -0.7223199    -1.2472797
H    -2.0634363    -0.7223199    1.2472797
H    1.5488004    -2.7128282    1.2475604
H    1.5488004    -2.7128282    -1.2475604
C    -0.3380031    2.0800608    1.1300452
C    0.8540254    1.3593471    1.1306308
N    1.4701787    0.9907598    0.0
C    0.8540254    1.3593471    -1.1306308
C    -0.3380031    2.0800608    -1.1300452
N    -0.9523059    2.4528836    0.0
H    -0.8103758    2.3643033    2.0618643
H    1.3208583    1.067061    2.0623986
H    1.3208583    1.067061    -2.0623986
H    -0.8103758    2.3643033    -2.0618643
$end

--------------------------------------------------------------

             Standard Nuclear Orientation (Angstroms)
    I     Atom           X                Y                Z
 ----------------------------------------------------------------
    1      C       1.1513200590    -1.2660493115    -0.6961388000
    2      C       1.1513200590    -1.2660493115     0.6961388000
    3      N       1.7190894596    -0.2869233665     1.4144796000
    4      C       2.2767858490     0.6946121668     0.6967288000
    5      C       2.2767858490     0.6946121668    -0.6967288000
    6      N       1.7190894596    -0.2869233665    -1.4144796000
    7      H       0.6885913984    -2.0748710515    -1.2472797000
    8      H       0.6885913984    -2.0748710515     1.2472797000
    9      H       2.7376361774     1.5044854217     1.2475604000
   10      H       2.7376361774     1.5044854217    -1.2475604000
   11      C      -2.0853312869    -0.3040491374     1.1300452000
   12      C      -1.3453091646     0.8760896005     1.1306308000
   13      N      -0.9667409193     1.4861613753     0.0000000000
   14      C      -1.3453091646     0.8760896005    -1.1306308000
   15      C      -2.0853312869    -0.3040491374    -1.1300452000
   16      N      -2.4681043485    -0.9122017117    -0.0000000000
   17      H      -2.3772254381    -0.7717323326     2.0618643000
   18      H      -1.0454626564     1.3381027954     2.0623986000
   19      H      -1.0454626564     1.3381027954    -2.0623986000
   20      H      -2.3772254381    -0.7717323326    -2.0618643000
 ----------------------------------------------------------------

    8    -525.4788784122      5.56e-06  Convergence criterion met
 Total energy in the final basis set =     -525.4788784122

             Orbital Energies (a.u.) and Symmetries
 --------------------------------------------------------------

 Alpha MOs, Restricted
 -- Occupied --
-15.597 -15.595 -15.595 -15.595 -11.288 -11.288 -11.287 -11.286
  1 A'    1 A"    2 A'    3 A'    2 A"    4 A'    5 A'    6 A'
-11.286 -11.286 -11.286 -11.285  -1.312  -1.308  -1.222  -1.221
  3 A"    7 A'    4 A"    5 A"    8 A'    9 A'   10 A'    6 A"
 -1.056  -1.055  -0.906  -0.905  -0.890  -0.889  -0.730  -0.728
  7 A"   11 A'   12 A'   13 A'    8 A"    9 A"   14 A'   15 A'
 -0.706  -0.705  -0.678  -0.678  -0.612  -0.612  -0.595  -0.555
 10 A"   16 A'   17 A'   11 A"   12 A"   18 A'   19 A'   20 A'
 -0.552  -0.551  -0.503  -0.502  -0.440  -0.438  -0.416  -0.414
 13 A"   14 A"   21 A'   15 A"   16 A"   22 A'   23 A'   24 A'
 -0.358  -0.357
 25 A'   17 A"

 Beta MOs, Restricted
 -- Occupied --
-15.597 -15.595 -15.595 -15.595 -11.288 -11.288 -11.287 -11.286
  1 A'    1 A"    2 A'    3 A'    2 A"    4 A'    5 A'    6 A'
-11.286 -11.286 -11.286 -11.285  -1.312  -1.308  -1.222  -1.221
  3 A"    7 A'    4 A"    5 A"    8 A'    9 A'   10 A'    6 A"
 -1.056  -1.055  -0.906  -0.905  -0.890  -0.889  -0.730  -0.728
  7 A"   11 A'   12 A'   13 A'    8 A"    9 A"   14 A'   15 A'
 -0.706  -0.705  -0.678  -0.678  -0.612  -0.612  -0.595  -0.555
 10 A"   16 A'   17 A'   11 A"   12 A"   18 A'   19 A'   20 A'
 -0.552  -0.551  -0.503  -0.502  -0.440  -0.438  -0.416  -0.414
 13 A"   14 A"   21 A'   15 A"   16 A"   22 A'   23 A'   24 A'
 -0.358  -0.357
 25 A'   17 A"

          Ground-State Mulliken Net Atomic Charges

     Atom                 Charge (a.u.)
  ----------------------------------------
      1 C                    -0.276830
      2 C                    -0.276830
      3 N                     0.002452
      4 C                    -0.124094
      5 C                    -0.124094
      6 N                     0.002452
      7 H                     0.203851
      8 H                     0.203851
      9 H                     0.209631
     10 H                     0.209631
     11 C                    -0.177440
     12 C                    -0.180915
     13 N                    -0.043503
     14 C                    -0.180915
     15 C                    -0.177440
     16 N                    -0.091574
     17 H                     0.207707
     18 H                     0.203177
     19 H                     0.203177
     20 H                     0.207707
  ----------------------------------------
  Sum of atomic charges =    -0.000000

                    Cartesian Multipole Moments
 -----------------------------------------------------------------
    Charge (ESU x 10^10)
                -0.0000
    Dipole Moment (Debye)
         X       0.0945      Y       0.2287      Z      -0.0000
       Tot       0.2474
    Quadrupole Moments (Debye-Ang)
        XX     -73.9959     XY       2.4096     YY     -69.8813
        XZ      -0.0000     YZ       0.0000     ZZ     -68.6838

 Total job time:  400.46s(wall), 398.43s(cpu)
        *  Thank you very much for using Q-Chem.  Have a nice day.  *
