 Q-Chem 5.0, Q-Chem, Inc., Pleasanton, CA (2017)
 Q-Chem 5.0.2 for Intel X86 EM64T Linux

User input:
--------------------------------------------------------------
$rem
SCF_PRINT                     1
BASIS                         6-311++g**
SCF_SAVE_MATRICES             1
SCF_CONVERGENCE               5
SCF_FINAL_PRINT               1
METHOD                        hf
JOBTYPE                       sp
$end

$molecule
0 1
O    -0.822589646    0.130751992    -0.00467018
H    0.151322978    0.236946671    -0.005208468
C    -1.09449506    -1.17158663    -0.000235811
F    -2.408360005    -1.348046797    0.002362133
F    -0.590968467    -1.812045684    -1.074390844
F    -0.58752505    -1.805322781    1.076316471
$end

--------------------------------------------------------------

             Standard Nuclear Orientation (Angstroms)
    I     Atom           X                Y                Z
 ----------------------------------------------------------------
    1      O       1.2603236467    -0.5000011179     0.0011437397
    2      H       1.8731621431     0.2643367275     0.0013285872
    3      C       0.0158362195    -0.0295886206     0.0000346172
    4      F      -0.8389212281    -1.0428860055    -0.0020023462
    5      F      -0.2514373368     0.7378108326     1.0757663634
    6      F      -0.2486157277     0.7398756106    -1.0749513736
 ----------------------------------------------------------------

    8    -411.7708842439      4.96e-06  Convergence criterion met
 Total energy in the final basis set =     -411.7708842439

                    Orbital Energies (a.u.)
 --------------------------------------------------------------

 Alpha MOs
 -- Occupied --
-26.358 -26.355 -26.355 -20.649 -11.579  -1.761  -1.658  -1.650
 -1.474  -0.984  -0.878  -0.854  -0.846  -0.741  -0.731  -0.702
 -0.678  -0.677  -0.663  -0.635  -0.583

          Ground-State Mulliken Net Atomic Charges

     Atom                 Charge (a.u.)
  ----------------------------------------
      1 O                    -0.341010
      2 H                     0.302442
      3 C                     0.735699
      4 F                    -0.208919
      5 F                    -0.244055
      6 F                    -0.244157
  ----------------------------------------
  Sum of atomic charges =     0.000000

                    Cartesian Multipole Moments
 -----------------------------------------------------------------
    Charge (ESU x 10^10)
                 0.0000
    Dipole Moment (Debye)
         X       2.0879      Y       0.9910      Z       0.0012
       Tot       2.3112
    Quadrupole Moments (Debye-Ang)
        XX     -22.5786     XY       2.4718     YY     -27.9613
        XZ       0.0038     YZ       0.0021     ZZ     -28.0232

 Total job time:  23.93s(wall), 23.35s(cpu)
        *  Thank you very much for using Q-Chem.  Have a nice day.  *
