 Q-Chem 5.0, Q-Chem, Inc., Pleasanton, CA (2017)
 Q-Chem 5.0.2 for Intel X86 EM64T Linux

User input:
--------------------------------------------------------------
$rem
SCF_PRINT                     1
BASIS                         6-311++g**
SCF_SAVE_MATRICES             1
SCF_CONVERGENCE               5
SCF_FINAL_PRINT               1
METHOD                        hf
JOBTYPE                       sp
$end

$molecule
0 1
C    -0.029223    -0.304334    -0.044139
Cl    -2.190285388    -2.636684923    -0.981703134
Cl    -3.492714388    -4.043406923    -1.546246134
H    -1.013963    0.140625    -0.15039
H    -0.06119    -1.086463    0.708351
H    0.678304    0.459656    0.262535
H    0.286077    -0.724543    -0.994403
$end

--------------------------------------------------------------

             Standard Nuclear Orientation (Angstroms)
    I     Atom           X                Y                Z
 ----------------------------------------------------------------
    1      C      -3.3334978159     0.0001175061     0.0002183068
    2      Cl     -0.0185200520    -0.0001835234    -0.0003402053
    3      Cl      1.9799534881     0.0001144546     0.0002121656
    4      H      -2.9746915029    -0.9773477123    -0.3076947180
    5      H      -2.9750037014     0.2221460505     1.0008052131
    6      H      -4.4190041787     0.0000707516    -0.0000106677
    7      H      -2.9746821354     0.7556000445    -0.6922329947
 ----------------------------------------------------------------

    7    -959.1761875572      2.72e-06  Convergence criterion met
 Total energy in the final basis set =     -959.1761875572

                    Orbital Energies (a.u.)
 --------------------------------------------------------------

 Alpha MOs
 -- Occupied --
*******-104.899 -11.211 -10.622 -10.622  -8.091  -8.090  -8.086
 -8.086  -8.086  -8.086  -1.223  -1.019  -0.951  -0.600  -0.570
 -0.570  -0.552  -0.551  -0.549  -0.448  -0.448

          Ground-State Mulliken Net Atomic Charges

     Atom                 Charge (a.u.)
  ----------------------------------------
      1 C                    -0.567898
      2 Cl                   -0.094832
      3 Cl                    0.143375
      4 H                     0.128579
      5 H                     0.128639
      6 H                     0.133547
      7 H                     0.128589
  ----------------------------------------
  Sum of atomic charges =     0.000000

                    Cartesian Multipole Moments
 -----------------------------------------------------------------
    Charge (ESU x 10^10)
                 0.0000
    Dipole Moment (Debye)
         X      -0.1494      Y       0.0000      Z       0.0000
       Tot       0.1494
    Quadrupole Moments (Debye-Ang)
        XX     -30.9866     XY       0.0003     YY     -34.1375
        XZ       0.0007     YZ       0.0000     ZZ     -34.1375

 Total job time:  21.33s(wall), 19.99s(cpu)
        *  Thank you very much for using Q-Chem.  Have a nice day.  *
