 Q-Chem 5.0, Q-Chem, Inc., Pleasanton, CA (2017)
 Q-Chem 5.0.2 for Intel X86 EM64T Linux

User input:
--------------------------------------------------------------
$rem
SCF_PRINT                     1
BASIS                         6-311++g**
SCF_SAVE_MATRICES             1
SCF_CONVERGENCE               5
SCF_FINAL_PRINT               1
METHOD                        hf
JOBTYPE                       sp
$end

$molecule
0 1
H    -1.982727901    -2.229710809    3.302751592
H    -2.449489395    0.193673563    3.123490546
C    0.127581029    -1.959602814    3.614622471
C    -1.175738052    -1.515819137    3.395968839
C    -1.43842973    -0.150603905    3.294462135
C    -0.398879384    0.770556176    3.412257913
C    0.904159726    0.325967381    3.630272076
C    1.167830304    -1.039033251    3.73196994
H    -0.602955098    1.829871089    3.332690746
H    1.711481364    1.040279331    3.720124956
H    0.331418327    -3.018852194    3.696210666
H    2.179355046    -1.382919174    3.899512705
$end

--------------------------------------------------------------

             Standard Nuclear Orientation (Angstroms)
    I     Atom           X                Y                Z
 ----------------------------------------------------------------
    1      H       2.1052137111    -1.3028770965     0.0021607073
    2      H       2.1812530404     1.1703818597     0.0012747272
    3      C      -0.0431560476    -1.3930346789     0.0000290303
    4      C       1.1853686659    -0.7341560773    -0.0000497057
    5      C       1.2280264790     0.6591505890     0.0000035695
    6      C       0.0431641939     1.3934377216    -0.0006553951
    7      C      -1.1848624979     0.7338543356     0.0000484589
    8      C      -1.2285383519    -0.6594093737    -0.0000556879
    9      H       0.0766162759     2.4746436388     0.0001439135
   10      H      -2.1046260619     1.3031670860     0.0011919836
   11      H      -0.0766720304    -2.4742766378    -0.0028050532
   12      H      -2.1817995837    -1.1700939480     0.0021121018
 ----------------------------------------------------------------

    6    -230.7563257819      6.39e-06  Convergence criterion met
 Total energy in the final basis set =     -230.7563257819

                    Orbital Energies (a.u.)
 --------------------------------------------------------------

 Alpha MOs
 -- Occupied --
-11.238 -11.238 -11.238 -11.237 -11.237 -11.236  -1.153  -1.017
 -1.017  -0.826  -0.826  -0.712  -0.645  -0.621  -0.590  -0.590
 -0.502  -0.496  -0.496  -0.337  -0.337

          Ground-State Mulliken Net Atomic Charges

     Atom                 Charge (a.u.)
  ----------------------------------------
      1 H                     0.192639
      2 H                     0.192587
      3 C                    -0.190302
      4 C                    -0.195431
      5 C                    -0.189656
      6 C                    -0.195346
      7 C                    -0.189601
      8 C                    -0.195447
      9 H                     0.192698
     10 H                     0.192582
     11 H                     0.192632
     12 H                     0.192644
  ----------------------------------------
  Sum of atomic charges =    -0.000000

                    Cartesian Multipole Moments
 -----------------------------------------------------------------
    Charge (ESU x 10^10)
                -0.0000
    Dipole Moment (Debye)
         X      -0.0000      Y       0.0003      Z       0.0035
       Tot       0.0035
    Quadrupole Moments (Debye-Ang)
        XX     -31.9128     XY      -0.0002     YY     -31.9256
        XZ       0.0005     YZ       0.0061     ZZ     -41.3077

 Total job time:  86.87s(wall), 85.87s(cpu)
        *  Thank you very much for using Q-Chem.  Have a nice day.  *
