 Q-Chem 5.0, Q-Chem, Inc., Pleasanton, CA (2017)
 Q-Chem 5.0.2 for Intel X86 EM64T Linux

User input:
--------------------------------------------------------------
$rem
SCF_PRINT                     1
BASIS                         6-311++g**
SCF_SAVE_MATRICES             1
SCF_CONVERGENCE               5
SCF_FINAL_PRINT               1
METHOD                        hf
JOBTYPE                       sp
$end

$molecule
0 1
N    2.0113587    -1.2132073    -0.0980673
C    2.0257076    -0.6971797    -1.3644029
H    2.2975208    -1.3910592    -2.1456459
C    1.7145226    0.5919651    -1.6124892
H    1.7272873    0.9908466    -2.612005
C    1.3089605    1.457534    -0.520589
O    0.9205926    2.6110864    -0.6260457
N    1.3768885    0.8397454    0.7346356
H    1.051804    1.3862229    1.523371
C    1.6459909    -0.4852113    1.0187267
O    1.561109    -0.9718061    2.1298059
H    2.1294635    -2.2015046    0.0568134
$end

--------------------------------------------------------------

             Standard Nuclear Orientation (Angstroms)
    I     Atom           X                Y                Z
 ----------------------------------------------------------------
    1      N       1.1747017623     0.9806838064     0.0147194390
    2      C       0.0126693655     1.7013869669    -0.0043564578
    3      H       0.1318255087     2.7738417369    -0.0408856389
    4      C      -1.1969986193     1.1042505949     0.0158611457
    5      H      -2.1073398471     1.6781189433    -0.0001135463
    6      C      -1.2848176337    -0.3442731364     0.0141276164
    7      O      -2.3129851729    -1.0004052943    -0.0565546551
    8      N      -0.0375729949    -0.9779821169     0.0823881672
    9      H      -0.0432983870    -1.9896887543     0.0291150869
   10      C       1.2160055046    -0.4009775690     0.0172666731
   11      O       2.2521868775    -1.0342576825    -0.0440593838
   12      H       2.0641460138     1.4337989239    -0.1203506985
 ----------------------------------------------------------------

    9    -412.5783538861      5.92e-06  Convergence criterion met
 Total energy in the final basis set =     -412.5783538861

                    Orbital Energies (a.u.)
 --------------------------------------------------------------

 Alpha MOs
 -- Occupied --
-20.551 -20.545 -15.649 -15.631 -11.426 -11.387 -11.346 -11.260
 -1.442  -1.402  -1.320  -1.251  -1.094  -0.939  -0.907  -0.812
 -0.770  -0.719  -0.681  -0.673  -0.656  -0.618  -0.606  -0.573
 -0.529  -0.487  -0.452  -0.438  -0.371

          Ground-State Mulliken Net Atomic Charges

     Atom                 Charge (a.u.)
  ----------------------------------------
      1 N                    -0.513610
      2 C                     0.082134
      3 H                     0.228015
      4 C                    -0.164110
      5 H                     0.247694
      6 C                     0.211886
      7 O                    -0.411895
      8 N                    -0.563687
      9 H                     0.400873
     10 C                     0.545843
     11 O                    -0.440224
     12 H                     0.377082
  ----------------------------------------
  Sum of atomic charges =     0.000000

                    Cartesian Multipole Moments
 -----------------------------------------------------------------
    Charge (ESU x 10^10)
                 0.0000
    Dipole Moment (Debye)
         X       1.4380      Y       4.9705      Z      -0.0846
       Tot       5.1751
    Quadrupole Moments (Debye-Ang)
        XX     -60.7761     XY       2.4759     YY     -38.3555
        XZ      -0.5813     YZ      -0.6983     ZZ     -46.9623

 Total job time:  193.60s(wall), 190.52s(cpu)
        *  Thank you very much for using Q-Chem.  Have a nice day.  *
