 Q-Chem 5.0, Q-Chem, Inc., Pleasanton, CA (2017)
 Q-Chem 5.0.2 for Intel X86 EM64T Linux

User input:
--------------------------------------------------------------
$rem
SCF_PRINT                     1
BASIS                         6-311++g**
SCF_SAVE_MATRICES             1
SCF_CONVERGENCE               5
SCF_FINAL_PRINT               1
METHOD                        hf
JOBTYPE                       sp
$end

$molecule
0 1
C    -0.032603    -0.245329    -0.035933
H    -0.980553    0.254481    -0.212468
H    -0.160128    -1.020226    0.714308
H    0.692193    0.480189    0.320357
H    0.328323    -0.68552    -0.960895
$end

--------------------------------------------------------------

             Standard Nuclear Orientation (Angstroms)
    I     Atom           X                Y                Z
 ----------------------------------------------------------------
    1      C       0.0000008492    -0.0000024256    -0.0015336202
    2      H       0.2262831379    -1.0008617445    -0.3574279788
    3      H       0.7536005113     0.6958480045    -0.3585620120
    4      H      -0.0004288812     0.0008678938     1.0841215883
    5      H      -0.9794598633     0.3041603998    -0.3589298761
 ----------------------------------------------------------------

    6     -40.2091311486      6.65e-06  Convergence criterion met
 Total energy in the final basis set =      -40.2091311486

                    Orbital Energies (a.u.)
 --------------------------------------------------------------

 Alpha MOs
 -- Occupied --
-11.206  -0.944  -0.546  -0.546  -0.545

          Ground-State Mulliken Net Atomic Charges

     Atom                 Charge (a.u.)
  ----------------------------------------
      1 C                    -0.468679
      2 H                     0.117124
      3 H                     0.117123
      4 H                     0.117308
      5 H                     0.117123
  ----------------------------------------
  Sum of atomic charges =     0.000000

                    Cartesian Multipole Moments
 -----------------------------------------------------------------
    Charge (ESU x 10^10)
                -0.0000
    Dipole Moment (Debye)
         X      -0.0000      Y       0.0000      Z       0.0054
       Tot       0.0054
    Quadrupole Moments (Debye-Ang)
        XX      -8.4128     XY      -0.0000     YY      -8.4128
        XZ      -0.0000     YZ       0.0000     ZZ      -8.4443

 Total job time:  1.55s(wall), 1.48s(cpu)
        *  Thank you very much for using Q-Chem.  Have a nice day.  *
