 Q-Chem 5.0, Q-Chem, Inc., Pleasanton, CA (2017)
 Q-Chem 5.0.2 for Intel X86 EM64T Linux

User input:
--------------------------------------------------------------
$rem
SCF_PRINT                     1
BASIS                         6-311++g**
SCF_SAVE_MATRICES             1
SCF_CONVERGENCE               5
SCF_FINAL_PRINT               1
METHOD                        hf
JOBTYPE                       sp
$end

$molecule
0 1
C    0.228087368    -0.006027308    -0.103512024
Cl    1.808884452    0.632806687    0.291464994
F    0.331959317    -1.250132504    -0.555496397
F    -0.551167778    -0.01333945    0.969446208
F    -0.350921815    0.733335757    -1.03965153
O    4.688782228    1.192694165    0.788621015
C    5.236612511    0.16210948    0.46433639
H    6.327564644    0.039937485    0.529623404
H    4.669249211    -0.702665676    0.088392932
$end

--------------------------------------------------------------

             Standard Nuclear Orientation (Angstroms)
    I     Atom           X                Y                Z
 ----------------------------------------------------------------
    1      C       1.4307848648    -0.0607077446     0.0000277303
    2      Cl     -0.2613936700     0.3860214185     0.0000343352
    3      F       1.5600760331    -1.3821257159     0.0039434399
    4      F       2.0371202820     0.4167923909    -1.0783425215
    5      F       2.0388688566     0.4233892034     1.0743417228
    6      O      -3.2315756126     0.5662116606    -0.0000066052
    7      C      -3.5845063825    -0.5925908253    -0.0000206321
    8      H      -4.6473296791    -0.8750294515    -0.0001183756
    9      H      -2.8586304695    -1.4197394338     0.0000611580
 ----------------------------------------------------------------

    9    -909.6895509371      5.53e-06  Convergence criterion met
 Total energy in the final basis set =     -909.6895509371

                    Orbital Energies (a.u.)
 --------------------------------------------------------------

 Alpha MOs
 -- Occupied --
******* -26.370 -26.369 -26.369 -20.589 -11.581 -11.355 -10.604
 -8.072  -8.069  -8.069  -1.772  -1.670  -1.670  -1.417  -1.182
 -0.976  -0.882  -0.862  -0.861  -0.823  -0.740  -0.740  -0.706
 -0.693  -0.693  -0.675  -0.663  -0.593  -0.546  -0.501  -0.500
 -0.454

          Ground-State Mulliken Net Atomic Charges

     Atom                 Charge (a.u.)
  ----------------------------------------
      1 C                     0.116929
      2 Cl                    0.234107
      3 F                    -0.132141
      4 F                    -0.123348
      5 F                    -0.123237
      6 O                    -0.287376
      7 C                     0.102616
      8 H                     0.116223
      9 H                     0.096228
  ----------------------------------------
  Sum of atomic charges =     0.000000

                    Cartesian Multipole Moments
 -----------------------------------------------------------------
    Charge (ESU x 10^10)
                 0.0000
    Dipole Moment (Debye)
         X      -1.9353      Y      -2.5805      Z       0.0004
       Tot       3.2256
    Quadrupole Moments (Debye-Ang)
        XX     -38.7401     XY       9.5643     YY     -45.5946
        XZ       0.0011     YZ       0.0003     ZZ     -45.8750

 Total job time:  91.12s(wall), 86.45s(cpu)
        *  Thank you very much for using Q-Chem.  Have a nice day.  *
