 Q-Chem 5.0, Q-Chem, Inc., Pleasanton, CA (2017)
 Q-Chem 5.0.2 for Intel X86 EM64T Linux

User input:
--------------------------------------------------------------
$rem
SCF_PRINT                     1
BASIS                         6-311++g**
SCF_SAVE_MATRICES             1
SCF_CONVERGENCE               5
SCF_FINAL_PRINT               1
METHOD                        hf
JOBTYPE                       sp
$end

$molecule
0 1
N    1.4327616    0.3639703    -0.0159508
C    2.11542    -0.780345    0.1681099
C    3.5237586    -0.8016096    0.1545027
C    4.2185897    0.3735783    -0.0525929
C    3.5099708    1.5615014    -0.2449763
C    2.1280138    1.4953324    -0.2175374
H    4.0459206    -1.7361356    0.3076883
H    5.2999426    0.3666009    -0.0663349
H    4.0110923    2.5024313    -0.4130052
H    1.5339878    2.3893837    -0.3670565
N    1.3883123    -1.9083038    0.4198149
H    1.8694714    -2.7812773    0.2940385
H    0.4089067    -1.9079942    0.130086
$end

--------------------------------------------------------------

             Standard Nuclear Orientation (Angstroms)
    I     Atom           X                Y                Z
 ----------------------------------------------------------------
    1      N      -0.2805353067    -1.1943888812    -0.0052584100
    2      C      -0.9126734077    -0.0070558835    -0.0055930861
    3      C      -0.1933873697     1.2040048830    -0.0018027534
    4      C       1.1871214830     1.1737712457     0.0033625427
    5      C       1.8435668544    -0.0588642244     0.0050001851
    6      C       1.0625576568    -1.2012082223     0.0016530579
    7      H      -0.7284997140     2.1437415001    -0.0045769907
    8      H       1.7477407072     2.0985665192     0.0079894912
    9      H       2.9203918446    -0.1303258991     0.0118350309
   10      H       1.5256025625    -2.1810542492     0.0081149232
   11      N      -2.2767832544    -0.0252659580    -0.0622039335
   12      H      -2.7412169819     0.8260330510     0.2004894695
   13      H      -2.7458997919    -0.8832638387     0.2326648030
 ----------------------------------------------------------------

    8    -301.8111217125      5.81e-06  Convergence criterion met
 Total energy in the final basis set =     -301.8111217125

                    Orbital Energies (a.u.)
 --------------------------------------------------------------

 Alpha MOs
 -- Occupied --
-15.573 -15.550 -11.320 -11.274 -11.259 -11.232 -11.224  -1.282
 -1.191  -1.084  -1.008  -0.863  -0.843  -0.725  -0.708  -0.666
 -0.625  -0.609  -0.570  -0.564  -0.528  -0.461  -0.414  -0.379
 -0.307

          Ground-State Mulliken Net Atomic Charges

     Atom                 Charge (a.u.)
  ----------------------------------------
      1 N                    -0.273043
      2 C                    -0.285518
      3 C                     0.370295
      4 C                    -0.401898
      5 C                    -0.205549
      6 C                    -0.166113
      7 H                     0.190299
      8 H                     0.212227
      9 H                     0.182419
     10 H                     0.218614
     11 N                    -0.384561
     12 H                     0.253324
     13 H                     0.289505
  ----------------------------------------
  Sum of atomic charges =     0.000000

                    Cartesian Multipole Moments
 -----------------------------------------------------------------
    Charge (ESU x 10^10)
                 0.0000
    Dipole Moment (Debye)
         X      -0.2997      Y       1.9567      Z       0.8904
       Tot       2.1706
    Quadrupole Moments (Debye-Ang)
        XX     -32.6539     XY      -2.0815     YY     -39.3537
        XZ      -2.7539     YZ      -0.1349     ZZ     -46.2109

 Total job time:  169.91s(wall), 168.91s(cpu)
        *  Thank you very much for using Q-Chem.  Have a nice day.  *
