 Q-Chem 5.0, Q-Chem, Inc., Pleasanton, CA (2017)
 Q-Chem 5.0.2 for Intel X86 EM64T Linux

User input:
--------------------------------------------------------------
$rem
SCF_PRINT                     1
BASIS                         6-311++g**
SCF_SAVE_MATRICES             1
SCF_CONVERGENCE               5
SCF_FINAL_PRINT               1
METHOD                        hf
JOBTYPE                       sp
$end

$molecule
0 1
O    -3.696572914    0.000152987    -3.61861755
C    -4.843989757    0.001944155    -3.211415447
C    -6.003097569    -0.000552348    -4.185876962
C    -5.132206123    0.006671195    -1.72526393
H    -5.91776328    0.87330307    -4.829393925
H    -5.918845591    -0.878698982    -4.823653257
H    -6.973224937    0.001637767    -3.699032662
H    -6.193070441    0.008055248    -1.495292581
H    -4.662540213    -0.867116113    -1.276801052
H    -4.661407822    0.882569128    -1.28215677
$end

--------------------------------------------------------------

             Standard Nuclear Orientation (Angstroms)
    I     Atom           X                Y                Z
 ----------------------------------------------------------------
    1      O       0.0009679706    -1.3754397660    -0.0000010294
    2      C      -0.0003383696    -0.1579092876     0.0000067929
    3      C       1.3048523379     0.6099381020    -0.0000013278
    4      C      -1.3053431046     0.6093585872     0.0000020019
    5      H       1.8806675099     0.3161919606     0.8758807454
    6      H       1.8804631669     0.3165654886    -0.8761309941
    7      H       1.1693453481     1.6868814974     0.0002396828
    8      H      -1.1684211268     1.6861938460     0.0001907784
    9      H      -1.8823274903     0.3148283487    -0.8749552752
   10      H      -1.8824963548     0.3145325769     0.8747384959
 ----------------------------------------------------------------

    9    -192.0122956753      1.86e-06  Convergence criterion met
 Total energy in the final basis set =     -192.0122956753

                    Orbital Energies (a.u.)
 --------------------------------------------------------------

 Alpha MOs
 -- Occupied --
-20.543 -11.338 -11.236 -11.236  -1.385  -1.041  -0.974  -0.744
 -0.644  -0.639  -0.621  -0.569  -0.568  -0.537  -0.480  -0.413

          Ground-State Mulliken Net Atomic Charges

     Atom                 Charge (a.u.)
  ----------------------------------------
      1 O                    -0.353487
      2 C                     0.427976
      3 C                    -0.514013
      4 C                    -0.515110
      5 H                     0.173238
      6 H                     0.173245
      7 H                     0.130657
      8 H                     0.130539
      9 H                     0.173480
     10 H                     0.173475
  ----------------------------------------
  Sum of atomic charges =     0.000000

                    Cartesian Multipole Moments
 -----------------------------------------------------------------
    Charge (ESU x 10^10)
                 0.0000
    Dipole Moment (Debye)
         X      -0.0058      Y       3.4159      Z      -0.0000
       Tot       3.4159
    Quadrupole Moments (Debye-Ang)
        XX     -23.2029     XY       0.0078     YY     -30.1985
        XZ      -0.0000     YZ      -0.0001     ZZ     -24.2267

 Total job time:  49.52s(wall), 47.74s(cpu)
        *  Thank you very much for using Q-Chem.  Have a nice day.  *
