 Q-Chem 5.0, Q-Chem, Inc., Pleasanton, CA (2017)
 Q-Chem 5.0.2 for Intel X86 EM64T Linux

User input:
--------------------------------------------------------------
$rem
SCF_PRINT                     1
BASIS                         6-311++g**
SCF_SAVE_MATRICES             1
SCF_CONVERGENCE               5
SCF_FINAL_PRINT               1
METHOD                        hf
JOBTYPE                       sp
$end

$molecule
0 1
F    -1.914074031    -1.171208027    -0.110672709
H    -2.180664731    1.398938308    -0.409375369
C    0.373446598    -0.776856318    0.213048434
C    -0.901105553    -0.295713511    -0.038342168
C    -1.178590841    1.05107584    -0.215317349
C    -0.111215305    1.930588158    -0.127725254
C    1.187438475    1.517317904    0.123482484
C    1.394209663    0.156584712    0.290367081
F    -0.346665186    3.242328465    -0.288420034
H    2.000411788    2.222856141    0.189254724
H    0.559538929    -1.828333656    0.360285918
F    2.639006191    -0.274021355    0.541291643
H    -1.982727901    -2.229710809    3.302751592
H    -2.449489395    0.193673563    3.123490546
C    0.127581029    -1.959602814    3.614622471
C    -1.175738052    -1.515819137    3.395968839
C    -1.43842973    -0.150603905    3.294462135
C    -0.398879384    0.770556176    3.412257913
C    0.904159726    0.325967381    3.630272076
C    1.167830304    -1.039033251    3.73196994
H    -0.602955098    1.829871089    3.332690746
H    1.711481364    1.040279331    3.720124956
H    0.331418327    -3.018852194    3.696210666
H    2.179355046    -1.382919174    3.899512705
$end

--------------------------------------------------------------

             Standard Nuclear Orientation (Angstroms)
    I     Atom           X                Y                Z
 ----------------------------------------------------------------
    1      F      -0.4615435130    -2.3429434277    -1.4218598318
    2      H      -2.1967294423    -2.1517691129     0.5064887456
    3      C      -0.4323133048     0.0001350494    -1.4686371987
    4      C      -0.9134501565    -1.1811544649    -0.9280437893
    5      C      -1.8390404142    -1.2176989489     0.1035118472
    6      C      -2.2809819792    -0.0001543419     0.5962365277
    7      C      -1.8394672064     1.2175138817     0.1035418216
    8      C      -0.9138302158     1.1812797135    -0.9280020986
    9      F      -3.1730607714    -0.0002968246     1.5992906140
   10      H      -2.1975476164     2.1515550408     0.5065074929
   11      H       0.2977741195     0.0002485292    -2.2616606313
   12      F      -0.4623537534     2.3432640252    -1.4218285663
   13      H       2.9321240171    -2.1368311291    -0.3186167183
   14      H       1.3798674568    -2.1515902124     1.6083172115
   15      C       3.0242718581     0.0086457917    -0.4284489178
   16      C       2.5915483020    -1.2031830355     0.1078487675
   17      C       1.7166597040    -1.2113185961     1.1930339646
   18      C       1.2751830194    -0.0086333765     1.7423273849
   19      C       1.7078542272     1.2026803229     1.2050983445
   20      C       2.5827715533     1.2118346599     0.1199590792
   21      H       0.5956738822    -0.0152958456     2.5839620206
   22      H       1.3642948283     2.1362626738     1.6299209695
   23      H       3.7053887495     0.0153706075    -1.2688357833
   24      H       2.9165440234     2.1521555609    -0.2970576484
 ----------------------------------------------------------------

    7    -758.1478299594      8.35e-06  Convergence criterion met
 Total energy in the final basis set =     -758.1478299594

                    Orbital Energies (a.u.)
 --------------------------------------------------------------

 Alpha MOs
 -- Occupied --
-26.330 -26.329 -26.329 -11.362 -11.361 -11.361 -11.259 -11.259
-11.257 -11.241 -11.240 -11.240 -11.239 -11.239 -11.238  -1.650
 -1.649  -1.649  -1.194  -1.155  -1.055  -1.055  -1.020  -1.019
 -0.889  -0.889  -0.828  -0.828  -0.802  -0.776  -0.721  -0.721
 -0.721  -0.715  -0.713  -0.709  -0.708  -0.665  -0.664  -0.648
 -0.623  -0.593  -0.592  -0.586  -0.573  -0.572  -0.530  -0.499
 -0.499  -0.496  -0.368  -0.363  -0.339  -0.336

          Ground-State Mulliken Net Atomic Charges

     Atom                 Charge (a.u.)
  ----------------------------------------
      1 F                    -0.176817
      2 H                     0.289290
      3 C                     1.240419
      4 C                    -1.090135
      5 C                     0.958255
      6 C                    -1.266200
      7 C                     0.959276
      8 C                    -1.093519
      9 F                    -0.187297
     10 H                     0.289364
     11 H                     0.281906
     12 F                    -0.176616
     13 H                     0.206166
     14 H                     0.198772
     15 C                    -0.432430
     16 C                    -0.216143
     17 C                    -0.262799
     18 C                     0.154863
     19 C                    -0.261915
     20 C                    -0.215251
     21 H                     0.202579
     22 H                     0.198430
     23 H                     0.193547
     24 H                     0.206255
  ----------------------------------------
  Sum of atomic charges =     0.000000

                    Cartesian Multipole Moments
 -----------------------------------------------------------------
    Charge (ESU x 10^10)
                 0.0000
    Dipole Moment (Debye)
         X       0.3266      Y       0.0001      Z       0.0021
       Tot       0.3266
    Quadrupole Moments (Debye-Ang)
        XX     -89.9976     XY       0.0024     YY     -84.3215
        XZ      -3.7790     YZ       0.0023     ZZ     -87.4815

 Total job time:  1132.24s(wall), 1106.41s(cpu)
        *  Thank you very much for using Q-Chem.  Have a nice day.  *
