 Q-Chem 5.0, Q-Chem, Inc., Pleasanton, CA (2017)
 Q-Chem 5.0.2 for Intel X86 EM64T Linux

User input:
--------------------------------------------------------------
$rem
SCF_PRINT                     1
BASIS                         6-311++g**
SCF_SAVE_MATRICES             1
SCF_CONVERGENCE               5
SCF_FINAL_PRINT               1
METHOD                        hf
JOBTYPE                       sp
$end

$molecule
0 1
C    0.0    0.0    1.0590353
C    0.0    -1.2060084    1.7576742
C    0.0    -1.2071767    3.1515905
C    0.0    0.0    3.8485751
C    0.0    1.2071767    3.1515905
C    0.0    1.2060084    1.7576742
H    0.0    0.0    -0.0215805
H    0.0    -2.1416387    1.2144217
H    0.0    -2.1435657    3.6929953
H    0.0    0.0    4.9301499
H    0.0    2.1435657    3.6929953
H    0.0    2.1416387    1.2144217
$end

--------------------------------------------------------------

             Standard Nuclear Orientation (Angstroms)
    I     Atom           X                Y                Z
 ----------------------------------------------------------------
    1      C       0.0000000000     0.0000000000     1.3952561810
    2      C       1.2060084000     0.0000000000     0.6966172810
    3      C       1.2071767000    -0.0000000000    -0.6972990190
    4      C      -0.0000000000    -0.0000000000    -1.3942836190
    5      C      -1.2071767000    -0.0000000000    -0.6972990190
    6      C      -1.2060084000     0.0000000000     0.6966172810
    7      H       0.0000000000     0.0000000000     2.4758719810
    8      H       2.1416387000     0.0000000000     1.2398697810
    9      H       2.1435657000    -0.0000000000    -1.2387038190
   10      H      -0.0000000000    -0.0000000000    -2.4758584190
   11      H      -2.1435657000    -0.0000000000    -1.2387038190
   12      H      -2.1416387000     0.0000000000     1.2398697810
 ----------------------------------------------------------------

    6    -230.7563352018      6.42e-06  Convergence criterion met
 Total energy in the final basis set =     -230.7563352018

             Orbital Energies (a.u.) and Symmetries
 --------------------------------------------------------------

 Alpha MOs, Restricted
 -- Occupied --
-11.238 -11.238 -11.238 -11.237 -11.237 -11.236  -1.153  -1.017
  1 A1    1 B1    2 A1    2 B1    3 A1    4 A1    5 A1    6 A1
 -1.017  -0.826  -0.826  -0.712  -0.645  -0.621  -0.590  -0.590
  3 B1    4 B1    7 A1    8 A1    9 A1    5 B1   10 A1    6 B1
 -0.502  -0.497  -0.496  -0.337  -0.337
  1 B2   11 A1    7 B1    2 B2    1 A2

 Beta MOs, Restricted
 -- Occupied --
-11.238 -11.238 -11.238 -11.237 -11.237 -11.236  -1.153  -1.017
  1 A1    1 B1    2 A1    2 B1    3 A1    4 A1    5 A1    6 A1
 -1.017  -0.826  -0.826  -0.712  -0.645  -0.621  -0.590  -0.590
  3 B1    4 B1    7 A1    8 A1    9 A1    5 B1   10 A1    6 B1
 -0.502  -0.497  -0.496  -0.337  -0.337
  1 B2   11 A1    7 B1    2 B2    1 A2

          Ground-State Mulliken Net Atomic Charges

     Atom                 Charge (a.u.)
  ----------------------------------------
      1 C                    -0.198436
      2 C                    -0.185364
      3 C                    -0.199816
      4 C                    -0.186759
      5 C                    -0.199816
      6 C                    -0.185364
      7 H                     0.192456
      8 H                     0.192517
      9 H                     0.192744
     10 H                     0.192578
     11 H                     0.192744
     12 H                     0.192517
  ----------------------------------------
  Sum of atomic charges =    -0.000000

                    Cartesian Multipole Moments
 -----------------------------------------------------------------
    Charge (ESU x 10^10)
                -0.0000
    Dipole Moment (Debye)
         X      -0.0000      Y      -0.0000      Z       0.0019
       Tot       0.0019
    Quadrupole Moments (Debye-Ang)
        XX     -31.9481     XY      -0.0000     YY     -41.3050
        XZ       0.0000     YZ      -0.0000     ZZ     -31.8908

 Total job time:  47.21s(wall), 46.40s(cpu)
        *  Thank you very much for using Q-Chem.  Have a nice day.  *
