 Q-Chem 5.0, Q-Chem, Inc., Pleasanton, CA (2017)
 Q-Chem 5.0.2 for Intel X86 EM64T Linux

User input:
--------------------------------------------------------------
$rem
SCF_PRINT                     1
BASIS                         6-311++g**
SCF_SAVE_MATRICES             1
SCF_CONVERGENCE               5
SCF_FINAL_PRINT               1
METHOD                        hf
JOBTYPE                       sp
$end

$molecule
0 1
H    0.022106668    0.337720036    0.044305376
C    0.026919353    0.297157256    1.127793236
C    1.232420009    0.374285365    1.823206501
C    1.238505395    0.31830385    3.215636232
C    0.039447508    0.184540972    3.91325517
C    -1.166219961    0.107113476    3.218629152
C    -1.172980038    0.163913404    1.825514693
H    2.16553244    0.474316067    1.280310128
H    2.176629361    0.375131147    3.756175076
H    0.04471698    0.13704066    4.996380563
H    -2.098861603    -0.000562861    3.760947121
H    -2.110703107    0.101604635    1.284610113
$end

--------------------------------------------------------------

             Standard Nuclear Orientation (Angstroms)
    I     Atom           X                Y                Z
 ----------------------------------------------------------------
    1      H      -1.8273656493     1.6740834261     0.0029722147
    2      C      -1.0280223341     0.9415168461    -0.0003314513
    3      C      -1.3292695433    -0.4193763549    -0.0003495335
    4      C      -0.3015956083    -1.3606083269    -0.0007689267
    5      C       1.0275884910    -0.9415927287    -0.0005133880
    6      C       1.3295544927     0.4189038090    -0.0002438849
    7      C       0.3017547529     1.3610648035    -0.0006700392
    8      H      -2.3632904660    -0.7453017392     0.0034972018
    9      H      -0.5362107574    -2.4191137397     0.0024219967
   10      H       1.8269745527    -1.6739950908     0.0031428736
   11      H       2.3635124173     0.7451548808     0.0035841363
   12      H       0.5363183971     2.4197239740     0.0016449181
 ----------------------------------------------------------------

    6    -230.7561725820      6.42e-06  Convergence criterion met
 Total energy in the final basis set =     -230.7561725820

                    Orbital Energies (a.u.)
 --------------------------------------------------------------

 Alpha MOs
 -- Occupied --
-11.239 -11.238 -11.238 -11.237 -11.237 -11.236  -1.153  -1.017
 -1.017  -0.825  -0.825  -0.711  -0.644  -0.621  -0.590  -0.589
 -0.502  -0.496  -0.496  -0.337  -0.337

          Ground-State Mulliken Net Atomic Charges

     Atom                 Charge (a.u.)
  ----------------------------------------
      1 H                     0.193293
      2 C                    -0.193133
      3 C                    -0.193444
      4 C                    -0.192957
      5 C                    -0.193364
      6 C                    -0.193245
      7 C                    -0.193404
      8 H                     0.193221
      9 H                     0.193213
     10 H                     0.193217
     11 H                     0.193261
     12 H                     0.193343
  ----------------------------------------
  Sum of atomic charges =    -0.000000

                    Cartesian Multipole Moments
 -----------------------------------------------------------------
    Charge (ESU x 10^10)
                -0.0000
    Dipole Moment (Debye)
         X      -0.0000      Y      -0.0002      Z       0.0149
       Tot       0.0149
    Quadrupole Moments (Debye-Ang)
        XX     -31.9286     XY       0.0000     YY     -31.9297
        XZ       0.0001     YZ      -0.0025     ZZ     -41.3229

 Total job time:  91.62s(wall), 86.47s(cpu)
        *  Thank you very much for using Q-Chem.  Have a nice day.  *
