 Q-Chem 5.0, Q-Chem, Inc., Pleasanton, CA (2017)
 Q-Chem 5.0.2 for Intel X86 EM64T Linux

User input:
--------------------------------------------------------------
$rem
SCF_PRINT                     1
BASIS                         6-311++g**
SCF_SAVE_MATRICES             1
SCF_CONVERGENCE               5
SCF_FINAL_PRINT               1
METHOD                        hf
JOBTYPE                       sp
$end

$molecule
0 1
O    -3.949939923    -0.00014345    -3.815896908
C    -3.800618306    0.0037715    -5.025811592
C    -2.413746868    0.013928662    -5.628840849
C    -5.004091973    -0.001515653    -5.942215119
H    -1.881038094    0.891330448    -5.265472224
H    -1.870078249    -0.858483324    -5.269712302
H    -2.420677721    0.016520534    -6.71412314
H    -5.616269855    0.870128273    -5.717411468
H    -5.605371398    -0.881767955    -5.721583165
H    -4.740047227    0.002639189    -6.994882525
$end

--------------------------------------------------------------

             Standard Nuclear Orientation (Angstroms)
    I     Atom           X                Y                Z
 ----------------------------------------------------------------
    1      O       0.0056182779    -1.3753014781     0.0000005600
    2      C      -0.0003732672    -0.1562157896    -0.0000054315
    3      C      -1.3067228645     0.6057622730     0.0000008488
    4      C       1.3025466423     0.6122710059     0.0000014117
    5      H      -1.8836650266     0.3103547097    -0.8749399507
    6      H      -1.8836791945     0.3102945338     0.8749132801
    7      H      -1.1722011864     1.6827006754     0.0000335023
    8      H       1.8788560066     0.3198022684    -0.8760072233
    9      H       1.8789070985     0.3196603501     0.8759278641
   10      H       1.1641330153     1.6886943515     0.0000870734
 ----------------------------------------------------------------

    9    -192.0121614463      1.87e-06  Convergence criterion met
 Total energy in the final basis set =     -192.0121614463

                    Orbital Energies (a.u.)
 --------------------------------------------------------------

 Alpha MOs
 -- Occupied --
-20.543 -11.338 -11.236 -11.236  -1.384  -1.041  -0.974  -0.744
 -0.644  -0.639  -0.621  -0.569  -0.568  -0.537  -0.479  -0.414

          Ground-State Mulliken Net Atomic Charges

     Atom                 Charge (a.u.)
  ----------------------------------------
      1 O                    -0.354083
      2 C                     0.428176
      3 C                    -0.515531
      4 C                    -0.514186
      5 H                     0.173754
      6 H                     0.173753
      7 H                     0.130679
      8 H                     0.173508
      9 H                     0.173508
     10 H                     0.130421
  ----------------------------------------
  Sum of atomic charges =     0.000000

                    Cartesian Multipole Moments
 -----------------------------------------------------------------
    Charge (ESU x 10^10)
                 0.0000
    Dipole Moment (Debye)
         X      -0.0202      Y       3.4267      Z      -0.0000
       Tot       3.4268
    Quadrupole Moments (Debye-Ang)
        XX     -23.1838     XY       0.0214     YY     -30.2142
        XZ      -0.0000     YZ      -0.0000     ZZ     -24.2250

 Total job time:  54.51s(wall), 50.03s(cpu)
        *  Thank you very much for using Q-Chem.  Have a nice day.  *
