 Q-Chem 5.0, Q-Chem, Inc., Pleasanton, CA (2017)
 Q-Chem 5.0.2 for Intel X86 EM64T Linux

User input:
--------------------------------------------------------------
$rem
SCF_PRINT                     1
BASIS                         6-311++g**
SCF_SAVE_MATRICES             1
SCF_CONVERGENCE               5
SCF_FINAL_PRINT               1
METHOD                        hf
JOBTYPE                       sp
$end

$molecule
0 1
H    0.8065245    -0.4358866    0.0
N    -0.1442408    -0.7686927    0.0
C    -0.5161122    -2.089322    0.0
C    -1.8898755    -2.1814495    0.0
C    -2.3932317    -0.847083    0.0
C    -1.2640653    0.0195887    0.0
C    -1.3896004    1.4117668    0.0
C    -2.6726501    1.936645    0.0
C    -3.8054511    1.097479    0.0
C    -3.6798167    -0.2817209    0.0
H    0.2310024    -2.8653173    0.0
H    -2.4585759    -3.0956052    0.0
H    -0.5188733    2.053952    0.0
H    -2.807757    3.0097859    0.0
H    -4.7905991    1.5439372    0.0
H    -4.5580187    -0.9142916    0.0
$end

--------------------------------------------------------------

             Standard Nuclear Orientation (Angstroms)
    I     Atom           X                Y                Z
 ----------------------------------------------------------------
    1      H      -1.8772804449    -2.0307502900    -0.0000000000
    2      N      -1.5605278507    -1.0745168719    -0.0000000000
    3      C      -2.3795773970     0.0261683360     0.0000000000
    4      C      -1.6139831827     1.1705365371     0.0000000000
    5      C      -0.2497999952     0.7547172838     0.0000000000
    6      C      -0.2525864977    -0.6687042384    -0.0000000000
    7      C       0.9267602442    -1.4190776026    -0.0000000000
    8      C       2.1257000894    -0.7231919043    -0.0000000000
    9      C       2.1524919576     0.6863186054     0.0000000000
   10      C       0.9833643900     1.4286912190     0.0000000000
   11      H      -3.4502791885    -0.0919274083     0.0000000000
   12      H      -1.9909251078     2.1790084375     0.0000000000
   13      H       0.9039176026    -2.5007641226    -0.0000000000
   14      H       3.0581862294    -1.2712383115    -0.0000000000
   15      H       3.1074729195     1.1941107565     0.0000000000
   16      H       1.0183852930     2.5104296253     0.0000000000
 ----------------------------------------------------------------

    8    -361.5508897286      6.36e-06  Convergence criterion met
 Total energy in the final basis set =     -361.5508897286

             Orbital Energies (a.u.) and Symmetries
 --------------------------------------------------------------

 Alpha MOs, Restricted
 -- Occupied --
-15.607 -11.274 -11.268 -11.234 -11.231 -11.230 -11.228 -11.223
  1 A'    2 A'    3 A'    4 A'    5 A'    6 A'    7 A'    8 A'
-11.219  -1.304  -1.132  -1.060  -1.000  -0.977  -0.847  -0.810
  9 A'   10 A'   11 A'   12 A'   13 A'   14 A'   15 A'   16 A'
 -0.793  -0.732  -0.666  -0.651  -0.605  -0.599  -0.586  -0.577
 17 A'   18 A'   19 A'   20 A'   21 A'   22 A'    1 A"   23 A'
 -0.553  -0.510  -0.485  -0.466  -0.387  -0.302  -0.282
 24 A'   25 A'   26 A'    2 A"    3 A"    4 A"    5 A"

 Beta MOs, Restricted
 -- Occupied --
-15.607 -11.274 -11.268 -11.234 -11.231 -11.230 -11.228 -11.223
  1 A'    2 A'    3 A'    4 A'    5 A'    6 A'    7 A'    8 A'
-11.219  -1.304  -1.132  -1.060  -1.000  -0.977  -0.847  -0.810
  9 A'   10 A'   11 A'   12 A'   13 A'   14 A'   15 A'   16 A'
 -0.793  -0.732  -0.666  -0.651  -0.605  -0.599  -0.586  -0.577
 17 A'   18 A'   19 A'   20 A'   21 A'   22 A'    1 A"   23 A'
 -0.553  -0.510  -0.485  -0.466  -0.387  -0.302  -0.282
 24 A'   25 A'   26 A'    2 A"    3 A"    4 A"    5 A"

          Ground-State Mulliken Net Atomic Charges

     Atom                 Charge (a.u.)
  ----------------------------------------
      1 H                     0.336324
      2 N                    -0.215286
      3 C                     0.035521
      4 C                    -0.504830
      5 C                     1.813237
      6 C                    -0.791768
      7 C                    -0.502823
      8 C                    -0.372602
      9 C                    -0.131653
     10 C                    -0.815648
     11 H                     0.208496
     12 H                     0.184603
     13 H                     0.186257
     14 H                     0.196843
     15 H                     0.190846
     16 H                     0.182484
  ----------------------------------------
  Sum of atomic charges =    -0.000000

                    Cartesian Multipole Moments
 -----------------------------------------------------------------
    Charge (ESU x 10^10)
                 0.0000
    Dipole Moment (Debye)
         X      -1.5208      Y      -1.5477      Z       0.0000
       Tot       2.1699
    Quadrupole Moments (Debye-Ang)
        XX     -45.2637     XY       3.2228     YY     -44.4267
        XZ      -0.0000     YZ      -0.0000     ZZ     -60.0352

 Total job time:  369.55s(wall), 366.38s(cpu)
        *  Thank you very much for using Q-Chem.  Have a nice day.  *
