 Q-Chem 5.0, Q-Chem, Inc., Pleasanton, CA (2017)
 Q-Chem 5.0.2 for Intel X86 EM64T Linux

User input:
--------------------------------------------------------------
$rem
SCF_PRINT                     1
BASIS                         6-311++g**
SCF_SAVE_MATRICES             1
SCF_CONVERGENCE               5
SCF_FINAL_PRINT               1
METHOD                        hf
JOBTYPE                       sp
$end

$molecule
0 1
C    0.050957671    0.055164191    -0.032925885
H    -1.02444564    0.072269161    0.117546172
H    0.508348983    -0.636912672    0.667869998
H    0.450713107    1.050360674    0.135265329
H    0.274236028    -0.252091989    -1.05034328
$end

--------------------------------------------------------------

             Standard Nuclear Orientation (Angstroms)
    I     Atom           X                Y                Z
 ----------------------------------------------------------------
    1      C      -0.0000121350    -0.0000495886     0.0014046573
    2      H       0.9264849424     0.4290905326     0.3713622540
    3      H      -0.0877278909    -1.0288213014     0.3378965226
    4      H       0.0049876684     0.0217104464    -1.0839571421
    5      H      -0.8436719101     0.5783178539     0.3662704215
 ----------------------------------------------------------------

    6     -40.2091337363      6.65e-06  Convergence criterion met
 Total energy in the final basis set =      -40.2091337363

                    Orbital Energies (a.u.)
 --------------------------------------------------------------

 Alpha MOs
 -- Occupied --
-11.206  -0.944  -0.546  -0.546  -0.545

          Ground-State Mulliken Net Atomic Charges

     Atom                 Charge (a.u.)
  ----------------------------------------
      1 C                    -0.468651
      2 H                     0.117117
      3 H                     0.117125
      4 H                     0.117290
      5 H                     0.117119
  ----------------------------------------
  Sum of atomic charges =    -0.000000

                    Cartesian Multipole Moments
 -----------------------------------------------------------------
    Charge (ESU x 10^10)
                -0.0000
    Dipole Moment (Debye)
         X       0.0000      Y       0.0001      Z      -0.0049
       Tot       0.0049
    Quadrupole Moments (Debye-Ang)
        XX      -8.4131     XY      -0.0000     YY      -8.4135
        XZ      -0.0000     YZ      -0.0000     ZZ      -8.4423

 Total job time:  2.26s(wall), 2.04s(cpu)
        *  Thank you very much for using Q-Chem.  Have a nice day.  *
