 Q-Chem 5.0, Q-Chem, Inc., Pleasanton, CA (2017)
 Q-Chem 5.0.2 for Intel X86 EM64T Linux

User input:
--------------------------------------------------------------
$rem
SCF_PRINT                     1
BASIS                         6-311++g**
SCF_SAVE_MATRICES             1
SCF_CONVERGENCE               5
SCF_FINAL_PRINT               1
METHOD                        hf
JOBTYPE                       sp
$end

$molecule
0 1
C    -0.029223    -0.304334    -0.044139
H    -1.013963    0.140625    -0.15039
H    -0.06119    -1.086463    0.708351
H    0.678304    0.459656    0.262535
H    0.286077    -0.724543    -0.994403
$end

--------------------------------------------------------------

             Standard Nuclear Orientation (Angstroms)
    I     Atom           X                Y                Z
 ----------------------------------------------------------------
    1      C      -0.0000003445    -0.0000014903     0.0009390244
    2      H       0.9373759601     0.4136078124     0.3604437707
    3      H      -0.1103428627    -1.0193049057     0.3584777467
    4      H       0.0003984792     0.0012079876    -1.0845666164
    5      H      -0.8274295093     0.6044980475     0.3600109523
 ----------------------------------------------------------------

    6     -40.2091402089      6.65e-06  Convergence criterion met
 Total energy in the final basis set =      -40.2091402089

                    Orbital Energies (a.u.)
 --------------------------------------------------------------

 Alpha MOs
 -- Occupied --
-11.206  -0.944  -0.546  -0.546  -0.545

          Ground-State Mulliken Net Atomic Charges

     Atom                 Charge (a.u.)
  ----------------------------------------
      1 C                    -0.468602
      2 H                     0.117120
      3 H                     0.117120
      4 H                     0.117241
      5 H                     0.117120
  ----------------------------------------
  Sum of atomic charges =     0.000000

                    Cartesian Multipole Moments
 -----------------------------------------------------------------
    Charge (ESU x 10^10)
                -0.0000
    Dipole Moment (Debye)
         X       0.0000      Y       0.0000      Z      -0.0033
       Tot       0.0033
    Quadrupole Moments (Debye-Ang)
        XX      -8.4160     XY       0.0000     YY      -8.4160
        XZ       0.0000     YZ       0.0000     ZZ      -8.4354

 Total job time:  2.30s(wall), 2.04s(cpu)
        *  Thank you very much for using Q-Chem.  Have a nice day.  *
