 Q-Chem 5.0, Q-Chem, Inc., Pleasanton, CA (2017)
 Q-Chem 5.0.2 for Intel X86 EM64T Linux

User input:
--------------------------------------------------------------
$rem
SCF_PRINT                     1
BASIS                         6-311++g**
SCF_SAVE_MATRICES             1
SCF_CONVERGENCE               5
SCF_FINAL_PRINT               1
METHOD                        hf
JOBTYPE                       sp
$end

$molecule
0 1
C    0.0    0.0    3.0826195
H    0.5868776    0.8381742    3.4463772
H    -1.0193189    0.0891638    3.4463772
H    0.0    0.0    1.9966697
H    0.4324413    -0.927338    3.4463772
$end

--------------------------------------------------------------

             Standard Nuclear Orientation (Angstroms)
    I     Atom           X                Y                Z
 ----------------------------------------------------------------
    1      C       0.0000000000    -0.0000000000     0.0005323300
    2      H       1.0232112719    -0.0000000000    -0.3632253700
    3      H      -0.5116056359    -0.8861269549    -0.3632253700
    4      H      -0.0000000000    -0.0000000000     1.0864821300
    5      H      -0.5116056359     0.8861269549    -0.3632253700
 ----------------------------------------------------------------

    6     -40.2091413555      6.65e-06  Convergence criterion met
 Total energy in the final basis set =      -40.2091413555

             Orbital Energies (a.u.) and Symmetries
 --------------------------------------------------------------

 Alpha MOs, Restricted
 -- Occupied --
-11.206  -0.944  -0.546  -0.545  -0.545
  1 A1    2 A1    3 A1    1 E     1 E

 Beta MOs, Restricted
 -- Occupied --
-11.206  -0.944  -0.546  -0.545  -0.545
  1 A1    2 A1    3 A1    1 E     1 E

          Ground-State Mulliken Net Atomic Charges

     Atom                 Charge (a.u.)
  ----------------------------------------
      1 C                    -0.468662
      2 H                     0.117175
      3 H                     0.117175
      4 H                     0.117136
      5 H                     0.117175
  ----------------------------------------
  Sum of atomic charges =     0.000000

                    Cartesian Multipole Moments
 -----------------------------------------------------------------
    Charge (ESU x 10^10)
                -0.0000
    Dipole Moment (Debye)
         X       0.0000      Y       0.0000      Z      -0.0017
       Tot       0.0017
    Quadrupole Moments (Debye-Ang)
        XX      -8.4267     XY      -0.0000     YY      -8.4267
        XZ      -0.0000     YZ      -0.0000     ZZ      -8.4160

 Total job time:  1.71s(wall), 1.46s(cpu)
        *  Thank you very much for using Q-Chem.  Have a nice day.  *
