 Q-Chem 5.0, Q-Chem, Inc., Pleasanton, CA (2017)
 Q-Chem 5.0.2 for Intel X86 EM64T Linux

User input:
--------------------------------------------------------------
$rem
SCF_PRINT                     1
BASIS                         6-311++g**
SCF_SAVE_MATRICES             1
SCF_CONVERGENCE               5
SCF_FINAL_PRINT               1
METHOD                        hf
JOBTYPE                       sp
$end

$molecule
0 1
C    0.052125307    -0.031919514    1.840660293
Cl    -1.491715802    0.847207403    1.755184684
H    0.81190911    0.554725768    1.338264649
H    -0.067811208    -0.989274688    1.347792712
H    0.311197296    -0.173143788    2.883203118
C    0.039754322    -0.020606284    -1.70731459
H    -0.032276711    0.011046812    -2.789939015
H    -0.826637179    -0.533296965    -1.301345967
H    0.944658983    -0.549439507    -1.423219897
H    0.069552712    0.991693192    -1.316575906
$end

--------------------------------------------------------------

             Standard Nuclear Orientation (Angstroms)
    I     Atom           X                Y                Z
 ----------------------------------------------------------------
    1      C      -0.6637344102    -1.1284468615     0.0000154577
    2      Cl     -1.2218584330     0.5603731883    -0.0000069415
    3      H      -0.0611225235    -1.2930323299     0.8852250572
    4      H      -0.0719498612    -1.2966568650    -0.8917965132
    5      H      -1.5308238965    -1.7781166445     0.0065827145
    6      C       2.6417786982     0.1607350065    -0.0000254185
    7      H       3.6241018456     0.6224937827    -0.0093044619
    8      H       2.0827721238     0.4805652053    -0.8738198931
    9      H       2.7529208154    -0.9194232233    -0.0115339425
   10      H       2.1074291295     0.4640970042     0.8948248086
 ----------------------------------------------------------------

    7    -539.3408412191      5.55e-06  Convergence criterion met
 Total energy in the final basis set =     -539.3408412191

                    Orbital Energies (a.u.)
 --------------------------------------------------------------

 Alpha MOs
 -- Occupied --
******* -11.291 -11.208 -10.550  -8.018  -8.015  -8.015  -1.131
 -0.947  -0.916  -0.621  -0.620  -0.550  -0.548  -0.547  -0.545
 -0.436  -0.435

          Ground-State Mulliken Net Atomic Charges

     Atom                 Charge (a.u.)
  ----------------------------------------
      1 C                    -0.530715
      2 Cl                    0.030156
      3 H                     0.168954
      4 H                     0.169182
      5 H                     0.171420
      6 C                    -0.502898
      7 H                     0.128598
      8 H                     0.124910
      9 H                     0.115048
     10 H                     0.125343
  ----------------------------------------
  Sum of atomic charges =     0.000000

                    Cartesian Multipole Moments
 -----------------------------------------------------------------
    Charge (ESU x 10^10)
                 0.0000
    Dipole Moment (Debye)
         X       0.7204      Y      -2.0457      Z      -0.0003
       Tot       2.1689
    Quadrupole Moments (Debye-Ang)
        XX     -29.8640     XY       1.7882     YY     -26.6978
        XZ      -0.0019     YZ      -0.0003     ZZ     -28.5376

 Total job time:  26.13s(wall), 25.75s(cpu)
        *  Thank you very much for using Q-Chem.  Have a nice day.  *
