 Q-Chem 5.0, Q-Chem, Inc., Pleasanton, CA (2017)
 Q-Chem 5.0.2 for Intel X86 EM64T Linux

User input:
--------------------------------------------------------------
$rem
SCF_PRINT                     1
BASIS                         6-311++g**
SCF_SAVE_MATRICES             1
SCF_CONVERGENCE               5
SCF_FINAL_PRINT               1
METHOD                        hf
JOBTYPE                       sp
$end

$molecule
0 1
C    2.3411e-05    0.000105759    2.053285735
F    -1.082526715    0.625339904    1.589816968
F    1.082627682    0.625237764    1.589922249
F    -2.386e-05    -1.249820225    1.589264753
H    -4.196e-05    -0.000280062    3.138092074
$end

--------------------------------------------------------------

             Standard Nuclear Orientation (Angstroms)
    I     Atom           X                Y                Z
 ----------------------------------------------------------------
    1      C      -0.0000012774     0.0000175638    -0.3362609800
    2      F       0.8431505380    -0.9229090941     0.1273522313
    3      F       0.3777008343     1.1916239886     0.1273584704
    4      F      -1.2208464393    -0.2687266097     0.1273596615
    5      H      -0.0000367329     0.0000000545    -1.4210673888
 ----------------------------------------------------------------

    7    -336.8730293651      8.67e-06  Convergence criterion met
 Total energy in the final basis set =     -336.8730293651

                    Orbital Energies (a.u.)
 --------------------------------------------------------------

 Alpha MOs
 -- Occupied --
-26.351 -26.351 -26.351 -11.517  -1.745  -1.648  -1.648  -0.999
 -0.856  -0.834  -0.834  -0.719  -0.719  -0.675  -0.675  -0.658
 -0.604

          Ground-State Mulliken Net Atomic Charges

     Atom                 Charge (a.u.)
  ----------------------------------------
      1 C                     0.420593
      2 F                    -0.207386
      3 F                    -0.207348
      4 F                    -0.207385
      5 H                     0.201526
  ----------------------------------------
  Sum of atomic charges =     0.000000

                    Cartesian Multipole Moments
 -----------------------------------------------------------------
    Charge (ESU x 10^10)
                 0.0000
    Dipole Moment (Debye)
         X       0.0000      Y       0.0002      Z      -1.9684
       Tot       1.9684
    Quadrupole Moments (Debye-Ang)
        XX     -22.7118     XY       0.0001     YY     -22.7115
        XZ       0.0001     YZ       0.0000     ZZ     -18.2912

 Total job time:  10.02s(wall), 9.47s(cpu)
        *  Thank you very much for using Q-Chem.  Have a nice day.  *
