 Q-Chem 5.0, Q-Chem, Inc., Pleasanton, CA (2017)
 Q-Chem 5.0.2 for Intel X86 EM64T Linux

User input:
--------------------------------------------------------------
$rem
SCF_PRINT                     1
BASIS                         6-311++g**
SCF_SAVE_MATRICES             1
SCF_CONVERGENCE               5
SCF_FINAL_PRINT               1
METHOD                        hf
JOBTYPE                       sp
$end

$molecule
0 1
O    -2.788527    -0.2744854    0.0
H    -2.6229114    -1.2190831    0.0
H    -1.9015103    0.097911    0.0
$end

--------------------------------------------------------------

             Standard Nuclear Orientation (Angstroms)
    I     Atom           X                Y                Z
 ----------------------------------------------------------------
    1      O      -0.0007849499    -0.1198076572     0.0000000000
    2      H      -0.7476710794     0.4817357339    -0.0000000000
    3      H       0.7539506786     0.4767255236     0.0000000000
 ----------------------------------------------------------------

    7     -76.0524396300      8.65e-06  Convergence criterion met
 Total energy in the final basis set =      -76.0524396300

             Orbital Energies (a.u.) and Symmetries
 --------------------------------------------------------------

 Alpha MOs, Restricted
 -- Occupied --
-20.568  -1.355  -0.716  -0.587  -0.510
  1 A'    2 A'    3 A'    4 A'    1 A"

 Beta MOs, Restricted
 -- Occupied --
-20.568  -1.355  -0.716  -0.587  -0.510
  1 A'    2 A'    3 A'    4 A'    1 A"

          Ground-State Mulliken Net Atomic Charges

     Atom                 Charge (a.u.)
  ----------------------------------------
      1 O                    -0.505297
      2 H                     0.252492
      3 H                     0.252806
  ----------------------------------------
  Sum of atomic charges =     0.000000

                    Cartesian Multipole Moments
 -----------------------------------------------------------------
    Charge (ESU x 10^10)
                -0.0000
    Dipole Moment (Debye)
         X       0.0128      Y       2.2678      Z      -0.0000
       Tot       2.2678
    Quadrupole Moments (Debye-Ang)
        XX      -4.3197     XY      -0.0046     YY      -6.2422
        XZ       0.0000     YZ      -0.0000     ZZ      -7.5638

 Total job time:  1.41s(wall), 1.24s(cpu)
        *  Thank you very much for using Q-Chem.  Have a nice day.  *
