 Q-Chem 5.0, Q-Chem, Inc., Pleasanton, CA (2017)
 Q-Chem 5.0.2 for Intel X86 EM64T Linux

User input:
--------------------------------------------------------------
$rem
SCF_PRINT                     1
BASIS                         6-311++g**
SCF_SAVE_MATRICES             1
SCF_CONVERGENCE               5
SCF_FINAL_PRINT               1
METHOD                        hf
JOBTYPE                       sp
$end

$molecule
0 1
C    -0.09550128    -0.091133031    -0.141315705
I    1.83039588    0.396977839    0.615165203
H    -0.179397714    -1.169911689    -0.184336422
H    -0.836289841    0.323841164    0.530854584
H    -0.191259588    0.340771952    -1.12975727
O    4.929738023    0.840944568    1.315419483
C    5.505619501    0.2504211    0.427801344
H    6.603732935    0.210582669    0.377172685
H    4.957103893    -0.273495438    -0.369061306
$end

--------------------------------------------------------------

             Standard Nuclear Orientation (Angstroms)
    I     Atom           X                Y                Z
 ----------------------------------------------------------------
    1      C       2.4902574715    -0.4816102554     0.0001043388
    2      I       0.4539192252     0.1290631319    -0.0000269302
    3      H       2.6605100210    -1.0942243635    -0.8764632916
    4      H       3.1082530352     0.4072431130    -0.0282742574
    5      H       2.6748511929    -1.0470946422     0.9050247009
    6      O      -2.7330530801     0.4986463392     0.0000745792
    7      C      -3.1478332206    -0.6398530380    -0.0000078748
    8      H      -4.2249585975    -0.8630217551     0.0003410247
    9      H      -2.4664954521    -1.5036392982    -0.0003762940
 ----------------------------------------------------------------

    9   -7070.3394007691      3.31e-06  Convergence criterion met
 Total energy in the final basis set =    -7070.3394007691

                    Orbital Energies (a.u.)
 --------------------------------------------------------------

 Alpha MOs
 -- Occupied --
*******-180.844-169.651-169.650-169.650 -37.898 -33.086 -33.082
-33.082 -24.270 -24.269 -24.269 -24.265 -24.265 -20.580 -11.345
-11.271  -7.215  -5.448  -5.438  -5.438  -2.372  -2.367  -2.366
 -2.355  -2.355  -1.408  -0.989  -0.873  -0.790  -0.697  -0.654
 -0.599  -0.598  -0.537  -0.465  -0.437  -0.354  -0.353

          Ground-State Mulliken Net Atomic Charges

     Atom                 Charge (a.u.)
  ----------------------------------------
      1 C                    -0.474286
      2 I                     0.000663
      3 H                     0.154193
      4 H                     0.159515
      5 H                     0.154617
      6 O                    -0.294485
      7 C                     0.099909
      8 H                     0.103457
      9 H                     0.096418
  ----------------------------------------
  Sum of atomic charges =     0.000000

                    Cartesian Multipole Moments
 -----------------------------------------------------------------
    Charge (ESU x 10^10)
                 0.0000
    Dipole Moment (Debye)
         X       0.4330      Y      -3.1911      Z      -0.0000
       Tot       3.2204
    Quadrupole Moments (Debye-Ang)
        XX     -34.6368     XY       6.7016     YY     -47.7518
        XZ       0.0011     YZ      -0.0002     ZZ     -48.6177

 Total job time:  94.91s(wall), 85.44s(cpu)
        *  Thank you very much for using Q-Chem.  Have a nice day.  *
