 Q-Chem 5.0, Q-Chem, Inc., Pleasanton, CA (2017)
 Q-Chem 5.0.2 for Intel X86 EM64T Linux

User input:
--------------------------------------------------------------
$rem
   JOBTYPE              aimd
   AIMD_METHOD          bomd
   METHOD               hf
   BASIS                sto-3g
   TIME_STEP            20        (20 a.u. = 0.48 fs)
   AIMD_STEPS           400
   AIMD_INIT_VELOC      thermal
   AIMD_TEMP            400
   MAX_SCF_CYCLES       100
   FOCK_EXTRAP_ORDER    6
   FOCK_EXTRAP_POINTS   12
$end

$molecule
   0 1
   C        4.33091        1.98230        0.00000
   C        3.21425        1.24567        0.00000
   H        4.30836        3.06736        0.00000
   H        5.30544        1.50418        0.00000
   C        1.89367        1.82420        0.00000
   C        0.77642        1.08809        0.00000
   H        0.79858        0.00302        0.00000
   H       -0.19786        1.56668        0.00000
   H        3.29578        0.16068        0.00000
   H        1.81231        2.90922        0.00000
$end

--------------------------------------------------------------

   11    -153.0165293289      3.68e-09  Convergence criterion met
 Total energy in the final basis set =     -153.0165293289

                    Orbital Energies (a.u.)
 --------------------------------------------------------------

 Alpha MOs
 -- Occupied --
-11.031 -11.030 -11.016 -11.016  -1.036  -0.942  -0.772  -0.708
 -0.591  -0.591  -0.498  -0.491  -0.443  -0.399  -0.261

          Ground-State Mulliken Net Atomic Charges

     Atom                 Charge (a.u.)
  ----------------------------------------
      1 C                    -0.124579
      2 C                    -0.059607
      3 H                     0.060788
      4 H                     0.060917
      5 C                    -0.059564
      6 C                    -0.124605
      7 H                     0.060760
      8 H                     0.060924
      9 H                     0.062505
     10 H                     0.062461
  ----------------------------------------
  Sum of atomic charges =     0.000000

                    Cartesian Multipole Moments
 -----------------------------------------------------------------
    Charge (ESU x 10^10)
                -0.0000
    Dipole Moment (Debye)
         X       0.0004      Y       0.0001      Z       0.0000
       Tot       0.0004
    Quadrupole Moments (Debye-Ang)
        XX     -22.6930     XY      -0.0707     YY     -22.0679
        XZ      -0.0000     YZ      -0.0000     ZZ     -25.1541

   11    -153.0163901433      5.46E-09  00000 Convergence criterion met
 Total energy in the final basis set = -153.01639014
   11    -153.0160847491      6.85E-09  00000 Convergence criterion met
 Total energy in the final basis set = -153.01608475
   11    -153.0156738561      5.47E-09  00000 Convergence criterion met
 Total energy in the final basis set = -153.01567386
   11    -153.0152364073      5.27E-09  00000 Convergence criterion met
 Total energy in the final basis set = -153.01523641
   12    -153.0148311654      3.35E-09  00000 Convergence criterion met
 Total energy in the final basis set = -153.01483117
   12    -153.0144640984      3.89E-09  00000 Convergence criterion met
 Total energy in the final basis set = -153.01446410
   12    -153.0140819967      4.40E-09  00000 Convergence criterion met
 Total energy in the final basis set = -153.01434418
    8    -153.0137997566      7.89E-09  00000 Convergence criterion met
 Total energy in the final basis set = -153.01379976
    8    -153.0130677386      4.97E-09  00000 Convergence criterion met
 Total energy in the final basis set = -153.01306774
    8    -153.0121840974      5.30E-09  00000 Convergence criterion met
 Total energy in the final basis set = -153.01218410
    8    -153.0112556705      5.81E-09  00000 Convergence criterion met
 Total energy in the final basis set = -153.01125567
    8    -153.0104356016      7.85E-09  00000 Convergence criterion met
 Total energy in the final basis set = -153.01043560
    8    -153.0098800132      9.13E-09  00000 Convergence criterion met
 Total energy in the final basis set = -153.00988001

             Standard Nuclear Orientation (Angstroms)
    I     Atom           X                Y                Z
 ----------------------------------------------------------------
    1      C       4.0632460058     2.1300687725     0.8239068507
    2      C       3.0665734436     1.3118479732     0.4520614863
    3      H       4.1132310913     3.1794928196     0.5600061124
    4      H       4.7485924104     1.8610811627     1.6031234263
    5      C       2.0721965168     1.7257067967    -0.5313200436
    6      C       1.0068577051     0.9646379356    -0.7674633911
    7      H       0.8967558649     0.0039046184    -0.2729096160
    8      H       0.3441202062     1.2543960010    -1.5785795349
    9      H       3.0260737546     0.3111610394     0.9389666274
   10      H       2.2697581522     2.6963409205    -0.9789529251
 ----------------------------------------------------------------

    8    -153.0097018470      4.77E-09  00000 Convergence criterion met
 Total energy in the final basis set = -153.00970185
 Total job time:  403.87s(wall), 404.77s(cpu)
        *  Thank you very much for using Q-Chem.  Have a nice day.  *
