 Q-Chem 5.0, Q-Chem, Inc., Pleasanton, CA (2017)
 Q-Chem 5.0.2 for Intel X86 EM64T Linux

User input:
--------------------------------------------------------------
$rem
SCF_PRINT                     1
BASIS                         6-311++g**
SCF_SAVE_MATRICES             1
SCF_CONVERGENCE               5
SCF_FINAL_PRINT               1
METHOD                        hf
JOBTYPE                       sp
$end

$molecule
0 1
C    0.050957671    0.055164191    -0.032925885
H    -1.02444564    0.072269161    0.117546172
H    0.508348983    -0.636912672    0.667869998
H    0.450713107    1.050360674    0.135265329
H    0.274236028    -0.252091989    -1.05034328
Br    -1.227140046    -3.025541086    -0.588241171
Br    -2.087810866    -5.109690789    -0.960898622
$end

--------------------------------------------------------------

             Standard Nuclear Orientation (Angstroms)
    I     Atom           X                Y                Z
 ----------------------------------------------------------------
    1      C       3.9582773968    -0.0008419202     0.0018527219
    2      H       3.5927623164     0.9776313637    -0.2954946505
    3      H       3.6146705733    -0.2310943377     1.0059494509
    4      H       5.0437685882     0.0043617136    -0.0119504869
    5      H       3.5959579042    -0.7541129443    -0.6914762693
    6      Br      0.5770583908     0.0005851686    -0.0012843721
    7      Br     -1.7083962126    -0.0003490050     0.0007659613
 ----------------------------------------------------------------

    7   -5184.9350023240      3.13e-06  Convergence criterion met
 Total energy in the final basis set =    -5184.9350023240

                    Orbital Energies (a.u.)
 --------------------------------------------------------------

 Alpha MOs
 -- Occupied --
*******-490.071 -65.205 -65.204 -58.565 -58.564 -58.563 -58.563
-58.562 -58.562 -11.214  -9.884  -9.883  -7.500  -7.498  -7.487
 -7.487  -7.486  -7.486  -3.241  -3.238  -3.235  -3.235  -3.233
 -3.233  -3.220  -3.220  -3.219  -3.219  -1.106  -0.957  -0.946
 -0.561  -0.556  -0.556  -0.529  -0.504  -0.504  -0.406  -0.406

          Ground-State Mulliken Net Atomic Charges

     Atom                 Charge (a.u.)
  ----------------------------------------
      1 C                    -0.525519
      2 H                     0.125728
      3 H                     0.127410
      4 H                     0.136236
      5 H                     0.125988
      6 Br                    0.033952
      7 Br                   -0.023795
  ----------------------------------------
  Sum of atomic charges =     0.000000

                    Cartesian Multipole Moments
 -----------------------------------------------------------------
    Charge (ESU x 10^10)
                 0.0000
    Dipole Moment (Debye)
         X       0.2596      Y      -0.0001      Z       0.0001
       Tot       0.2596
    Quadrupole Moments (Debye-Ang)
        XX     -40.2468     XY       0.0018     YY     -45.9691
        XZ      -0.0042     YZ      -0.0001     ZZ     -45.9685

 Total job time:  77.19s(wall), 72.96s(cpu)
        *  Thank you very much for using Q-Chem.  Have a nice day.  *
