 Q-Chem 5.0, Q-Chem, Inc., Pleasanton, CA (2017)
 Q-Chem 5.0.2 for Intel X86 EM64T Linux

User input:
--------------------------------------------------------------
$rem
SCF_PRINT                     1
BASIS                         6-311++g**
SCF_SAVE_MATRICES             1
SCF_CONVERGENCE               5
SCF_FINAL_PRINT               1
METHOD                        hf
JOBTYPE                       sp
$end

$molecule
0 1
C    -0.755422531    -0.796459123    -1.023590391
C    0.634274834    -0.880017014    -1.075233285
C    1.406955202    0.199695367    -0.653144334
C    0.798863737    1.361204515    -0.180597909
C    -0.593166787    1.434312023    -0.133597923
C    -1.376239198    0.359205222    -0.553258516
I    -1.514344238    3.173268101    0.573601106
H    1.110906949    -1.778801728    -1.440619836
H    1.399172302    2.197767355    0.147412751
H    2.48641778    0.142466525    -0.689380574
H    -2.45425225    0.42258112    -0.512807958
H    -1.362353593    -1.630564523    -1.348743149
S    -3.112683203    6.289227834    1.226984439
H    -4.328789697    5.797771251    0.973373089
C    -2.689135032    6.70316383    -0.489062886
H    -1.684433029    7.115457372    -0.460265708
H    -2.683867206    5.816530502    -1.115183775
H    -3.365330613    7.451201412    -0.890098894
$end

--------------------------------------------------------------

             Standard Nuclear Orientation (Angstroms)
    I     Atom           X                Y                Z
 ----------------------------------------------------------------
    1      C       3.6946013881    -1.1408864663    -0.4723481231
    2      C       4.3854317842     0.0647364488    -0.3716782354
    3      C       3.6917393051     1.2348285245    -0.0705999429
    4      C       2.3128980057     1.2065012277     0.1298323144
    5      C       1.6311416267    -0.0058407034     0.0262081471
    6      C       2.3157685963    -1.1831862864    -0.2743169574
    7      I      -0.4378455022    -0.0578793569     0.3249569428
    8      H       5.4549944220     0.0920952929    -0.5259076887
    9      H       1.7759430367     2.1145421480     0.3642247202
   10      H       4.2208422260     2.1747074317     0.0100561268
   11      H       1.7810651226    -2.1190588319    -0.3517744689
   12      H       4.2259357956    -2.0537767162    -0.7050208275
   13      S      -3.9995110885    -0.0982518092     0.2640422378
   14      H      -4.0491536492    -1.4030908753    -0.0182588820
   15      C      -3.8340785649     0.4829277077    -1.4478038222
   16      H      -3.7624025369     1.5655501195    -1.3927346163
   17      H      -2.9289614480     0.0968874254    -1.9059628350
   18      H      -4.7052867840     0.2172961530    -2.0377755873
 ----------------------------------------------------------------

    8   -7584.7206959288      3.94e-06  Convergence criterion met
 Total energy in the final basis set =    -7584.7206959288

                    Orbital Energies (a.u.)
 --------------------------------------------------------------

 Alpha MOs
 -- Occupied --
*******-180.856-169.662-169.661-169.661 -91.954 -37.910 -33.098
-33.094 -33.093 -24.282 -24.280 -24.280 -24.276 -24.276 -11.287
-11.257 -11.252 -11.252 -11.250 -11.249 -11.247  -8.957  -7.227
 -6.640  -6.639  -6.637  -5.460  -5.449  -5.449  -2.384  -2.379
 -2.378  -2.366  -2.366  -1.169  -1.042  -1.036  -1.031  -0.872
 -0.869  -0.843  -0.793  -0.705  -0.641  -0.640  -0.610  -0.603
 -0.596  -0.561  -0.531  -0.524  -0.512  -0.468  -0.457  -0.401
 -0.368  -0.358  -0.350  -0.321

          Ground-State Mulliken Net Atomic Charges

     Atom                 Charge (a.u.)
  ----------------------------------------
      1 C                     0.000653
      2 C                    -0.476191
      3 C                     0.001641
      4 C                    -0.784402
      5 C                     1.065457
      6 C                    -0.832919
      7 I                     0.057304
      8 H                     0.195606
      9 H                     0.182346
     10 H                     0.209185
     11 H                     0.184024
     12 H                     0.208795
     13 S                     0.047650
     14 H                     0.015234
     15 C                    -0.520020
     16 H                     0.159848
     17 H                     0.144235
     18 H                     0.141555
  ----------------------------------------
  Sum of atomic charges =     0.000000

                    Cartesian Multipole Moments
 -----------------------------------------------------------------
    Charge (ESU x 10^10)
                 0.0000
    Dipole Moment (Debye)
         X       1.4914      Y      -0.2863      Z      -1.9309
       Tot       2.4566
    Quadrupole Moments (Debye-Ang)
        XX     -77.2363     XY       2.0280     YY     -78.3177
        XZ       5.1327     YZ       0.9469     ZZ     -89.0309

 Total job time:  618.02s(wall), 577.10s(cpu)
        *  Thank you very much for using Q-Chem.  Have a nice day.  *
