 Q-Chem 5.0, Q-Chem, Inc., Pleasanton, CA (2017)
 Q-Chem 5.0.2 for Intel X86 EM64T Linux

User input:
--------------------------------------------------------------
$rem
SCF_PRINT                     1
BASIS                         6-311++g**
SCF_SAVE_MATRICES             1
SCF_CONVERGENCE               5
SCF_FINAL_PRINT               1
METHOD                        hf
JOBTYPE                       sp
$end

$molecule
0 1
N    0.052011732    0.047562391    2.873452643
H    1.0068262    0.080163433    3.205933085
C    -0.623816269    -1.146237096    3.397788453
H    -1.646683561    -1.160140608    3.032274493
H    -0.124806297    -2.030639328    3.011967991
H    -0.641816332    -1.203100448    4.486612449
H    -0.39708885    0.883158389    3.224595791
$end

--------------------------------------------------------------

             Standard Nuclear Orientation (Angstroms)
    I     Atom           X                Y                Z
 ----------------------------------------------------------------
    1      N       0.7508148097    -0.0000073581     0.1248992367
    2      H       1.1449437548     0.8087461656    -0.3375473581
    3      C      -0.7108100368     0.0000026863    -0.0182145361
    4      H      -1.1129320526    -0.8767217829     0.4814887250
    5      H      -1.1129493807     0.8766437718     0.4816054760
    6      H      -1.0548583439     0.0000655536    -1.0529733948
    7      H       1.1449525751    -0.8086983195    -0.3375808882
 ----------------------------------------------------------------

    7     -95.2457344782      6.56e-06  Convergence criterion met
 Total energy in the final basis set =      -95.2457344782

                    Orbital Energies (a.u.)
 --------------------------------------------------------------

 Alpha MOs
 -- Occupied --
-15.538 -11.242  -1.170  -0.898  -0.663  -0.604  -0.557  -0.520
 -0.391

          Ground-State Mulliken Net Atomic Charges

     Atom                 Charge (a.u.)
  ----------------------------------------
      1 N                    -0.472647
      2 H                     0.220445
      3 C                    -0.306437
      4 H                     0.120936
      5 H                     0.120940
      6 H                     0.096313
      7 H                     0.220450
  ----------------------------------------
  Sum of atomic charges =     0.000000

                    Cartesian Multipole Moments
 -----------------------------------------------------------------
    Charge (ESU x 10^10)
                 0.0000
    Dipole Moment (Debye)
         X      -0.3869      Y       0.0001      Z      -1.5064
       Tot       1.5553
    Quadrupole Moments (Debye-Ang)
        XX     -14.0696     XY       0.0000     YY     -12.5841
        XZ      -2.2354     YZ       0.0001     ZZ     -15.5524

 Total job time:  8.88s(wall), 8.52s(cpu)
        *  Thank you very much for using Q-Chem.  Have a nice day.  *
