 Q-Chem 5.0, Q-Chem, Inc., Pleasanton, CA (2017)
 Q-Chem 5.0.2 for Intel X86 EM64T Linux

User input:
--------------------------------------------------------------
$rem
SCF_PRINT                     1
BASIS                         6-311++g**
SCF_SAVE_MATRICES             1
SCF_CONVERGENCE               5
SCF_FINAL_PRINT               1
METHOD                        hf
JOBTYPE                       sp
$end

$molecule
0 1
H    0.002144194    0.361043475    0.029799709
C    0.015020592    0.274789738    1.107648016
C    1.227632658    0.29665504    1.794629427
C    1.243958826    0.183702791    3.183703934
C    0.047958213    0.048915002    3.886484583
C    -1.165135654    0.026954348    3.200213281
C    -1.181832083    0.139828643    1.810376587
H    2.155807907    0.399177037    1.249441585
H    2.184979344    0.198598553    3.716170761
H    0.060934662    -0.040672756    4.964014252
H    -2.093220602    -0.078628959    3.745125056
H    -2.122845437    0.123257119    1.277645797
Br    -0.268325907    -3.194209024    1.99445895
C    0.049999933    -5.089197474    1.929391171
F    0.078949601    -5.512441335    0.671851563
F    1.211983937    -5.3839963    2.498664481
F    -0.909987405    -5.743747328    2.570721738
$end

--------------------------------------------------------------

             Standard Nuclear Orientation (Angstroms)
    I     Atom           X                Y                Z
 ----------------------------------------------------------------
    1      H      -2.6941455220     0.9914804048     2.2453191986
    2      C      -2.7307602290     0.5375381135     1.2645244998
    3      C      -2.8424158588    -0.8462708237     1.1402046756
    4      C      -2.8878190101    -1.4311425649    -0.1240802371
    5      C      -2.8216768755    -0.6327429997    -1.2645490912
    6      C      -2.7100022165     0.7512120066    -1.1410800201
    7      C      -2.6644315372     1.3367265162     0.1237367593
    8      H      -2.8917023421    -1.4660846487     2.0248806054
    9      H      -2.9723343577    -2.5048677845    -0.2201725351
   10      H      -2.8549440926    -1.0868320742    -2.2453451694
   11      H      -2.6576439116     1.3708857845    -2.0257728283
   12      H      -2.5782214618     2.4104594271     0.2199048487
   13      Br      0.6179992051     0.2438371735    -0.0004740345
   14      C       2.5048892733    -0.1252037069     0.0005657403
   15      F       3.0676453090     0.3352607830     1.1108167987
   16      F       2.7216873039    -1.4326118410    -0.0692043092
   17      F       3.0920360796     0.4540131214    -1.0391854753
 ----------------------------------------------------------------

    7   -3139.3987066460      9.74e-06  Convergence criterion met
 Total energy in the final basis set =    -3139.3987066460

                    Orbital Energies (a.u.)
 --------------------------------------------------------------

 Alpha MOs
 -- Occupied --
******* -65.190 -58.550 -58.548 -58.548 -26.366 -26.366 -26.366
-11.571 -11.247 -11.246 -11.245 -11.245 -11.244 -11.243  -9.869
 -7.484  -7.474  -7.474  -3.224  -3.219  -3.219  -3.208  -3.208
 -1.766  -1.666  -1.666  -1.162  -1.093  -1.025  -1.025  -0.963
 -0.855  -0.855  -0.834  -0.833  -0.810  -0.734  -0.734  -0.719
 -0.689  -0.689  -0.672  -0.652  -0.629  -0.598  -0.598  -0.557
 -0.506  -0.504  -0.504  -0.449  -0.448  -0.346  -0.345

          Ground-State Mulliken Net Atomic Charges

     Atom                 Charge (a.u.)
  ----------------------------------------
      1 H                     0.205699
      2 C                    -0.168409
      3 C                    -0.236313
      4 C                    -0.193028
      5 C                    -0.232403
      6 C                    -0.171316
      7 C                    -0.247246
      8 H                     0.204601
      9 H                     0.204496
     10 H                     0.204899
     11 H                     0.205395
     12 H                     0.203449
     13 Br                    0.074042
     14 C                     0.275478
     15 F                    -0.109609
     16 F                    -0.110333
     17 F                    -0.109404
  ----------------------------------------
  Sum of atomic charges =    -0.000000

                    Cartesian Multipole Moments
 -----------------------------------------------------------------
    Charge (ESU x 10^10)
                -0.0000
    Dipole Moment (Debye)
         X      -1.4801      Y       0.0718      Z      -0.0003
       Tot       1.4818
    Quadrupole Moments (Debye-Ang)
        XX     -81.8841     XY       0.7679     YY     -71.6883
        XZ      -0.0140     YZ       0.0009     ZZ     -71.6771

 Total job time:  519.98s(wall), 515.40s(cpu)
        *  Thank you very much for using Q-Chem.  Have a nice day.  *
