 Q-Chem 5.0, Q-Chem, Inc., Pleasanton, CA (2017)
 Q-Chem 5.0.2 for Intel X86 EM64T Linux

User input:
--------------------------------------------------------------
$rem
SCF_PRINT                     1
BASIS                         6-311++g**
SCF_SAVE_MATRICES             1
SCF_CONVERGENCE               5
SCF_FINAL_PRINT               1
METHOD                        hf
JOBTYPE                       sp
$end

$molecule
0 1
F    -1.914074031    -1.171208027    -0.110672709
H    -2.180664731    1.398938308    -0.409375369
C    0.373446598    -0.776856318    0.213048434
C    -0.901105553    -0.295713511    -0.038342168
C    -1.178590841    1.05107584    -0.215317349
C    -0.111215305    1.930588158    -0.127725254
C    1.187438475    1.517317904    0.123482484
C    1.394209663    0.156584712    0.290367081
F    -0.346665186    3.242328465    -0.288420034
H    2.000411788    2.222856141    0.189254724
H    0.559538929    -1.828333656    0.360285918
F    2.639006191    -0.274021355    0.541291643
$end

--------------------------------------------------------------

             Standard Nuclear Orientation (Angstroms)
    I     Atom           X                Y                Z
 ----------------------------------------------------------------
    1      F       1.3989370824    -2.3155891247     0.0037952103
    2      H      -1.1984564526    -2.1760193431     0.0001669053
    3      C       1.4066868159     0.0281076672    -0.0054007966
    4      C       0.7066235007    -1.1673346982    -0.0026210919
    5      C      -0.6783142641    -1.2314224770    -0.0026182714
    6      C      -1.3642701952    -0.0272758039    -0.0023395935
    7      C      -0.7270301795     1.2033030666    -0.0026164088
    8      C       0.6593768091     1.1946270166    -0.0025855724
    9      F      -2.7063459791    -0.0541029093     0.0035755185
   10      H      -1.2845607924     2.1264433795     0.0000997226
   11      H       2.4843045453     0.0496452445     0.0083827695
   12      F       1.3052175388     2.3696811552     0.0037893835
 ----------------------------------------------------------------

    8    -527.3952230211      6.02e-06  Convergence criterion met
 Total energy in the final basis set =     -527.3952230211

                    Orbital Energies (a.u.)
 --------------------------------------------------------------

 Alpha MOs
 -- Occupied --
-26.336 -26.336 -26.335 -11.369 -11.369 -11.369 -11.268 -11.267
-11.267  -1.656  -1.655  -1.655  -1.202  -1.063  -1.063  -0.897
 -0.897  -0.808  -0.783  -0.727  -0.727  -0.727  -0.722  -0.715
 -0.714  -0.671  -0.671  -0.593  -0.580  -0.580  -0.529  -0.372
 -0.372

          Ground-State Mulliken Net Atomic Charges

     Atom                 Charge (a.u.)
  ----------------------------------------
      1 F                    -0.215330
      2 H                     0.278064
      3 C                     0.801086
      4 C                    -0.862175
      5 C                     0.800327
      6 C                    -0.864164
      7 C                     0.800369
      8 C                    -0.862235
      9 F                    -0.216359
     10 H                     0.278095
     11 H                     0.277661
     12 F                    -0.215339
  ----------------------------------------
  Sum of atomic charges =     0.000000

                    Cartesian Multipole Moments
 -----------------------------------------------------------------
    Charge (ESU x 10^10)
                 0.0000
    Dipole Moment (Debye)
         X       0.0153      Y       0.0002      Z       0.0038
       Tot       0.0157
    Quadrupole Moments (Debye-Ang)
        XX     -52.1855     XY      -0.0008     YY     -52.1670
        XZ       0.0295     YZ       0.0005     ZZ     -50.8578

 Total job time:  211.16s(wall), 200.30s(cpu)
        *  Thank you very much for using Q-Chem.  Have a nice day.  *
