 Q-Chem 5.0, Q-Chem, Inc., Pleasanton, CA (2017)
 Q-Chem 5.0.2 for Intel X86 EM64T Linux

User input:
--------------------------------------------------------------
$rem
SCF_PRINT                     1
BASIS                         6-311++g**
SCF_SAVE_MATRICES             1
SCF_CONVERGENCE               5
SCF_FINAL_PRINT               1
METHOD                        hf
JOBTYPE                       sp
$end

$molecule
0 1
O    -0.167235591    0.000145557    2.943064329
H    -1.010969151    -3.9884e-05    3.399033154
C    0.88199533    1.8821e-05    3.906791538
H    1.813385323    5.9838e-05    3.351066264
H    0.849525704    0.88916881    4.534616489
H    0.849495114    -0.889261044    4.534430809
$end

--------------------------------------------------------------

             Standard Nuclear Orientation (Angstroms)
    I     Atom           X                Y                Z
 ----------------------------------------------------------------
    1      O       0.7481816669    -0.1223175532    -0.0000003034
    2      H       1.1507362084     0.7481672342     0.0000046380
    3      C      -0.6692515245     0.0209961689     0.0000004687
    4      H      -1.0822520510    -0.9818739289    -0.0001811414
    5      H      -1.0192243935     0.5429791069     0.8893029774
    6      H      -1.0192039515     0.5432910001    -0.8891268590
 ----------------------------------------------------------------

    7    -115.0797071263      9.27e-06  Convergence criterion met
 Total energy in the final basis set =     -115.0797071263

                    Orbital Energies (a.u.)
 --------------------------------------------------------------

 Alpha MOs
 -- Occupied --
-20.557 -11.273  -1.357  -0.930  -0.692  -0.622  -0.594  -0.504
 -0.452

          Ground-State Mulliken Net Atomic Charges

     Atom                 Charge (a.u.)
  ----------------------------------------
      1 O                    -0.392083
      2 H                     0.257516
      3 C                    -0.208621
      4 H                     0.133259
      5 H                     0.104968
      6 H                     0.104961
  ----------------------------------------
  Sum of atomic charges =     0.000000

                    Cartesian Multipole Moments
 -----------------------------------------------------------------
    Charge (ESU x 10^10)
                 0.0000
    Dipole Moment (Debye)
         X      -1.0840      Y       1.7017      Z      -0.0000
       Tot       2.0176
    Quadrupole Moments (Debye-Ang)
        XX     -12.9637     XY       2.4601     YY     -12.1704
        XZ       0.0000     YZ       0.0000     ZZ     -13.7363

 Total job time:  7.53s(wall), 6.18s(cpu)
        *  Thank you very much for using Q-Chem.  Have a nice day.  *
