 Q-Chem 5.0, Q-Chem, Inc., Pleasanton, CA (2017)
 Q-Chem 5.0.2 for Intel X86 EM64T Linux

User input:
--------------------------------------------------------------
$rem
SCF_PRINT                     1
BASIS                         6-311++g**
SCF_SAVE_MATRICES             1
SCF_CONVERGENCE               5
SCF_FINAL_PRINT               1
METHOD                        hf
JOBTYPE                       sp
$end

$molecule
0 1
C    1.3932178    0.0362913    -0.6332803
C    0.7280364    -1.1884015    -0.6333017
C    -0.6651797    -1.2247077    -0.6332803
C    -1.3932041    -0.0362972    -0.6333017
C    -0.7280381    1.1884163    -0.6332803
C    0.6651677    1.2246987    -0.6333017
H    2.4742737    0.0644484    -0.631724
H    1.2929588    -2.1105409    -0.6317401
H    -1.1813229    -2.1750081    -0.631724
H    -2.4742614    -0.0644647    -0.6317401
H    -1.2929508    2.1105596    -0.631724
H    1.1813026    2.1750056    -0.6317401
$end

--------------------------------------------------------------

             Standard Nuclear Orientation (Angstroms)
    I     Atom           X                Y                Z
 ----------------------------------------------------------------
    1      C       0.6968506625    -1.2069681239     0.0002120071
    2      C       1.3936768224     0.0000000000     0.0002334071
    3      C       0.6968397256     1.2069744383     0.0002120071
    4      C      -0.6968384112     1.2069595329     0.0002334071
    5      C      -1.3936903881    -0.0000063144     0.0002120071
    6      C      -0.6968384112    -1.2069595329     0.0002334071
    7      H       1.2375686353    -2.1435036305    -0.0013442929
    8      H       2.4751010643    -0.0000025609    -0.0013281929
    9      H       1.2375442794     2.1435176923    -0.0013442929
   10      H      -1.2375483144     2.1435016791    -0.0013281929
   11      H      -2.4751129147    -0.0000140619    -0.0013442929
   12      H      -1.2375527500    -2.1434991182    -0.0013281929
 ----------------------------------------------------------------

    6    -230.7563642755      6.38e-06  Convergence criterion met
 Total energy in the final basis set =     -230.7563642755

             Orbital Energies (a.u.) and Symmetries
 --------------------------------------------------------------
 Warning : Irrep of orbital(   2) could not be determined
 Warning : Irrep of orbital(   3) could not be determined
 Warning : Irrep of orbital(   4) could not be determined
 Warning : Irrep of orbital(   5) could not be determined
 Warning : Irrep of orbital(   8) could not be determined
 Warning : Irrep of orbital(   9) could not be determined
 Warning : Irrep of orbital(  10) could not be determined
 Warning : Irrep of orbital(  11) could not be determined
 Warning : Irrep of orbital(  15) could not be determined
 Warning : Irrep of orbital(  16) could not be determined
 Warning : Irrep of orbital(  18) could not be determined
 Warning : Irrep of orbital(  19) could not be determined
 Warning : Irrep of orbital(  20) could not be determined
 Warning : Irrep of orbital(  21) could not be determined
 Warning : Irrep of orbital(  23) could not be determined
 Warning : Irrep of orbital(  24) could not be determined
 Warning : Irrep of orbital(  25) could not be determined
 Warning : Irrep of orbital(  26) could not be determined
 Warning : Irrep of orbital(  28) could not be determined
 Warning : Irrep of orbital(  29) could not be determined
 Warning : Irrep of orbital(  31) could not be determined
 Warning : Irrep of orbital(  32) could not be determined
 Warning : Irrep of orbital(  35) could not be determined
 Warning : Irrep of orbital(  36) could not be determined
 Warning : Irrep of orbital(  37) could not be determined
 Warning : Irrep of orbital(  38) could not be determined
 Warning : Irrep of orbital(  41) could not be determined
 Warning : Irrep of orbital(  42) could not be determined
 Warning : Irrep of orbital(  43) could not be determined
 Warning : Irrep of orbital(  44) could not be determined
 Warning : Irrep of orbital(  46) could not be determined
 Warning : Irrep of orbital(  47) could not be determined
 Warning : Irrep of orbital(  48) could not be determined
 Warning : Irrep of orbital(  49) could not be determined
 Warning : Irrep of orbital(  50) could not be determined
 Warning : Irrep of orbital(  51) could not be determined
 Warning : Irrep of orbital(  56) could not be determined
 Warning : Irrep of orbital(  57) could not be determined
 Warning : Irrep of orbital(  58) could not be determined
 Warning : Irrep of orbital(  59) could not be determined
 Warning : Irrep of orbital(  61) could not be determined
 Warning : Irrep of orbital(  62) could not be determined
 Warning : Irrep of orbital(  63) could not be determined
 Warning : Irrep of orbital(  64) could not be determined
 Warning : Irrep of orbital(  68) could not be determined
 Warning : Irrep of orbital(  69) could not be determined
 Warning : Irrep of orbital(  71) could not be determined
 Warning : Irrep of orbital(  72) could not be determined
 Warning : Irrep of orbital(  74) could not be determined
 Warning : Irrep of orbital(  75) could not be determined
 Warning : Irrep of orbital(  77) could not be determined
 Warning : Irrep of orbital(  78) could not be determined
 Warning : Irrep of orbital(  80) could not be determined
 Warning : Irrep of orbital(  81) could not be determined
 Warning : Irrep of orbital(  82) could not be determined
 Warning : Irrep of orbital(  83) could not be determined
 Warning : Irrep of orbital(  85) could not be determined
 Warning : Irrep of orbital(  86) could not be determined
 Warning : Irrep of orbital(  88) could not be determined
 Warning : Irrep of orbital(  89) could not be determined
 Warning : Irrep of orbital(  91) could not be determined
 Warning : Irrep of orbital(  92) could not be determined
 Warning : Irrep of orbital(  95) could not be determined
 Warning : Irrep of orbital(  96) could not be determined
 Warning : Irrep of orbital(  98) could not be determined
 Warning : Irrep of orbital(  99) could not be determined
 Warning : Irrep of orbital( 100) could not be determined
 Warning : Irrep of orbital( 101) could not be determined
 Warning : Irrep of orbital( 105) could not be determined
 Warning : Irrep of orbital( 106) could not be determined
 Warning : Irrep of orbital( 109) could not be determined
 Warning : Irrep of orbital( 110) could not be determined
 Warning : Irrep of orbital( 111) could not be determined
 Warning : Irrep of orbital( 112) could not be determined
 Warning : Irrep of orbital( 113) could not be determined
 Warning : Irrep of orbital( 114) could not be determined
 Warning : Irrep of orbital( 116) could not be determined
 Warning : Irrep of orbital( 117) could not be determined
 Warning : Irrep of orbital( 118) could not be determined
 Warning : Irrep of orbital( 119) could not be determined
 Warning : Irrep of orbital( 121) could not be determined
 Warning : Irrep of orbital( 122) could not be determined
 Warning : Irrep of orbital( 124) could not be determined
 Warning : Irrep of orbital( 125) could not be determined
 Warning : Irrep of orbital( 127) could not be determined
 Warning : Irrep of orbital( 128) could not be determined
 Warning : Irrep of orbital( 129) could not be determined
 Warning : Irrep of orbital( 130) could not be determined
 Warning : Irrep of orbital( 133) could not be determined
 Warning : Irrep of orbital( 134) could not be determined
 Warning : Irrep of orbital( 136) could not be determined
 Warning : Irrep of orbital( 137) could not be determined
 Warning : Irrep of orbital( 138) could not be determined
 Warning : Irrep of orbital( 139) could not be determined
 Warning : Irrep of orbital( 142) could not be determined
 Warning : Irrep of orbital( 143) could not be determined
 Warning : Irrep of orbital( 144) could not be determined
 Warning : Irrep of orbital( 145) could not be determined
 Warning : Irrep of orbital( 148) could not be determined
 Warning : Irrep of orbital( 149) could not be determined
 Warning : Irrep of orbital( 151) could not be determined
 Warning : Irrep of orbital( 152) could not be determined
 Warning : Irrep of orbital( 153) could not be determined
 Warning : Irrep of orbital( 154) could not be determined
 Warning : Irrep of orbital( 157) could not be determined
 Warning : Irrep of orbital( 158) could not be determined
 Warning : Irrep of orbital( 159) could not be determined
 Warning : Irrep of orbital( 160) could not be determined
 Warning : Irrep of orbital( 163) could not be determined
 Warning : Irrep of orbital( 164) could not be determined
 Warning : Irrep of orbital( 166) could not be determined
 Warning : Irrep of orbital( 167) could not be determined
 Warning : Irrep of orbital( 170) could not be determined
 Warning : Irrep of orbital( 171) could not be determined
 Warning : Irrep of orbital( 172) could not be determined
 Warning : Irrep of orbital( 173) could not be determined

 Alpha MOs, Restricted
 -- Occupied --
-11.238 -11.238 -11.238 -11.236 -11.236 -11.236  -1.153  -1.017
  1 A     0 xxx   0 xxx   0 xxx   0 xxx   2 A     3 A     0 xxx
 -1.017  -0.826  -0.826  -0.712  -0.645  -0.621  -0.590  -0.590
  0 xxx   0 xxx   0 xxx   4 A     5 A     6 A     0 xxx   0 xxx
 -0.502  -0.496  -0.496  -0.337  -0.337
  7 A     0 xxx   0 xxx   0 xxx   0 xxx

 Beta MOs, Restricted
 -- Occupied --
-11.238 -11.238 -11.238 -11.236 -11.236 -11.236  -1.153  -1.017
  1 A     0 xxx   0 xxx   0 xxx   0 xxx   2 A     3 A     0 xxx
 -1.017  -0.826  -0.826  -0.712  -0.645  -0.621  -0.590  -0.590
  0 xxx   0 xxx   0 xxx   4 A     5 A     6 A     0 xxx   0 xxx
 -0.502  -0.496  -0.496  -0.337  -0.337
  7 A     0 xxx   0 xxx   0 xxx   0 xxx

          Ground-State Mulliken Net Atomic Charges

     Atom                 Charge (a.u.)
  ----------------------------------------
      1 C                    -0.192555
      2 C                    -0.192517
      3 C                    -0.192555
      4 C                    -0.192517
      5 C                    -0.192555
      6 C                    -0.192517
      7 H                     0.192539
      8 H                     0.192533
      9 H                     0.192539
     10 H                     0.192533
     11 H                     0.192539
     12 H                     0.192533
  ----------------------------------------
  Sum of atomic charges =    -0.000000

                    Cartesian Multipole Moments
 -----------------------------------------------------------------
    Charge (ESU x 10^10)
                -0.0000
    Dipole Moment (Debye)
         X      -0.0000      Y       0.0000      Z      -0.0069
       Tot       0.0069
    Quadrupole Moments (Debye-Ang)
        XX     -31.9200     XY      -0.0000     YY     -31.9200
        XZ       0.0000     YZ      -0.0000     ZZ     -41.3005

 Total job time:  33.26s(wall), 32.53s(cpu)
        *  Thank you very much for using Q-Chem.  Have a nice day.  *
