 Q-Chem 5.0, Q-Chem, Inc., Pleasanton, CA (2017)
 Q-Chem 5.0.2 for Intel X86 EM64T Linux

User input:
--------------------------------------------------------------
$rem
SCF_PRINT                     1
BASIS                         6-311++g**
SCF_SAVE_MATRICES             1
SCF_CONVERGENCE               5
SCF_FINAL_PRINT               1
METHOD                        hf
JOBTYPE                       sp
$end

$molecule
0 1
O    4.695578043    0.845065122    1.191773039
C    5.385158396    0.226244432    0.410437893
H    6.482742329    0.244130452    0.468348711
H    4.945821455    -0.382680577    -0.393692603
$end

--------------------------------------------------------------

             Standard Nuclear Orientation (Angstroms)
    I     Atom           X                Y                Z
 ----------------------------------------------------------------
    1      O       0.6783345302    -0.0001543354    -0.0000010121
    2      C      -0.5336657276     0.0001539015     0.0000041757
    3      H      -1.1114445375     0.9353200414    -0.0000084801
    4      H      -1.1132373384    -0.9350087671    -0.0000084775
 ----------------------------------------------------------------

    8    -113.9009591175      9.18e-06  Convergence criterion met
 Total energy in the final basis set =     -113.9009591175

                    Orbital Energies (a.u.)
 --------------------------------------------------------------

 Alpha MOs
 -- Occupied --
-20.580 -11.346  -1.406  -0.874  -0.696  -0.652  -0.535  -0.445

          Ground-State Mulliken Net Atomic Charges

     Atom                 Charge (a.u.)
  ----------------------------------------
      1 O                    -0.307809
      2 C                     0.118798
      3 H                     0.094563
      4 H                     0.094447
  ----------------------------------------
  Sum of atomic charges =     0.000000

                    Cartesian Multipole Moments
 -----------------------------------------------------------------
    Charge (ESU x 10^10)
                 0.0000
    Dipole Moment (Debye)
         X      -2.9812      Y       0.0014      Z      -0.0000
       Tot       2.9812
    Quadrupole Moments (Debye-Ang)
        XX     -12.2145     XY       0.0005     YY     -11.4714
        XZ       0.0000     YZ       0.0000     ZZ     -11.7449

 Total job time:  3.55s(wall), 3.18s(cpu)
        *  Thank you very much for using Q-Chem.  Have a nice day.  *
