 Q-Chem 5.0, Q-Chem, Inc., Pleasanton, CA (2017)
 Q-Chem 5.0.2 for Intel X86 EM64T Linux

User input:
--------------------------------------------------------------
$rem
SCF_PRINT                     1
BASIS                         6-311++g**
SCF_SAVE_MATRICES             1
SCF_CONVERGENCE               5
SCF_FINAL_PRINT               1
METHOD                        hf
JOBTYPE                       sp
$end

$molecule
0 1
I    0.003414377    -3.215655817    1.72846281
C    0.106167253    -5.333396952    1.850723289
F    0.135277584    -5.877100968    0.636074544
F    1.202218878    -5.716996848    2.501577262
F    -0.950096543    -5.821924316    2.496892131
$end

--------------------------------------------------------------

             Standard Nuclear Orientation (Angstroms)
    I     Atom           X                Y                Z
 ----------------------------------------------------------------
    1      I       0.9635230367     0.0000382414     0.0000018987
    2      C      -1.1602314897     0.0001074589    -0.0000053510
    3      F      -1.6338397147     1.1769509843    -0.4032020871
    4      F      -1.6332713047    -0.9378314220    -0.8176806706
    5      F      -1.6334814258    -0.2394164008     1.2208751440
 ----------------------------------------------------------------

    8   -7253.0805999835      4.44e-06  Convergence criterion met
 Total energy in the final basis set =    -7253.0805999835

                    Orbital Energies (a.u.)
 --------------------------------------------------------------

 Alpha MOs
 -- Occupied --
*******-180.902-169.708-169.707-169.707 -37.956 -33.144 -33.139
-33.139 -26.370 -26.370 -26.370 -24.328 -24.327 -24.327 -24.322
-24.322 -11.567  -7.273  -5.507  -5.495  -5.495  -2.431  -2.425
 -2.425  -2.411  -2.411  -1.767  -1.668  -1.668  -1.019  -0.913
 -0.856  -0.856  -0.778  -0.738  -0.738  -0.693  -0.693  -0.676
 -0.522  -0.410  -0.410

          Ground-State Mulliken Net Atomic Charges

     Atom                 Charge (a.u.)
  ----------------------------------------
      1 I                     0.115406
      2 C                     0.243031
      3 F                    -0.119434
      4 F                    -0.119534
      5 F                    -0.119469
  ----------------------------------------
  Sum of atomic charges =    -0.000000

                    Cartesian Multipole Moments
 -----------------------------------------------------------------
    Charge (ESU x 10^10)
                 0.0000
    Dipole Moment (Debye)
         X       1.4024      Y       0.0008      Z       0.0001
       Tot       1.4024
    Quadrupole Moments (Debye-Ang)
        XX     -47.7597     XY      -0.0017     YY     -50.5604
        XZ      -0.0001     YZ      -0.0003     ZZ     -50.5603

 Total job time:  65.76s(wall), 63.82s(cpu)
        *  Thank you very much for using Q-Chem.  Have a nice day.  *
