 Q-Chem 5.0, Q-Chem, Inc., Pleasanton, CA (2017)
 Q-Chem 5.0.2 for Intel X86 EM64T Linux

User input:
--------------------------------------------------------------
$rem
SCF_PRINT                     1
BASIS                         6-311++g**
SCF_SAVE_MATRICES             1
SCF_CONVERGENCE               5
SCF_FINAL_PRINT               1
METHOD                        hf
JOBTYPE                       sp
$end

$molecule
0 1
C    0.0    -0.00014    1.859161
H    -0.888551    0.51306    1.494685
H    0.888551    0.51306    1.494685
H    0.0    -1.026339    1.494868
H    0.0    8.9e-05    2.948284
C    0.0    0.00014    -1.859161
H    0.0    -8.9e-05    -2.948284
H    -0.888551    -0.51306    -1.494685
H    0.888551    -0.51306    -1.494685
H    0.0    1.026339    -1.494868
$end

--------------------------------------------------------------

             Standard Nuclear Orientation (Angstroms)
    I     Atom           X                Y                Z
 ----------------------------------------------------------------
    1      C      -1.8591610048    -0.0000423748    -0.0000000000
    2      H      -1.4946580570     0.5131384857    -0.8885510000
    3      H      -1.4946580570     0.5131384857     0.8885510000
    4      H      -1.4949218914    -1.0262605026    -0.0000000000
    5      H      -2.9482839913     0.0002438154     0.0000000000
    6      C       1.8591610048     0.0000423748     0.0000000000
    7      H       2.9482839913    -0.0002438154    -0.0000000000
    8      H       1.4946580570    -0.5131384857    -0.8885510000
    9      H       1.4946580570    -0.5131384857     0.8885510000
   10      H       1.4949218914     1.0262605026     0.0000000000
 ----------------------------------------------------------------

    6     -80.4176625338      4.69e-06  Convergence criterion met
 Total energy in the final basis set =      -80.4176625338

             Orbital Energies (a.u.) and Symmetries
 --------------------------------------------------------------

 Alpha MOs, Restricted
 -- Occupied --
-11.207 -11.207  -0.945  -0.940  -0.551  -0.547  -0.547  -0.541
  1 Bu    1 Ag    2 Ag    2 Bu    3 Ag    3 Bu    1 Au    4 Ag
 -0.541  -0.538
  1 Bg    4 Bu

 Beta MOs, Restricted
 -- Occupied --
-11.207 -11.207  -0.945  -0.940  -0.551  -0.547  -0.547  -0.541
  1 Bu    1 Ag    2 Ag    2 Bu    3 Ag    3 Bu    1 Au    4 Ag
 -0.541  -0.538
  1 Bg    4 Bu

          Ground-State Mulliken Net Atomic Charges

     Atom                 Charge (a.u.)
  ----------------------------------------
      1 C                    -0.495620
      2 H                     0.125196
      3 H                     0.125196
      4 H                     0.125176
      5 H                     0.120051
      6 C                    -0.495620
      7 H                     0.120051
      8 H                     0.125196
      9 H                     0.125196
     10 H                     0.125176
  ----------------------------------------
  Sum of atomic charges =     0.000000

                    Cartesian Multipole Moments
 -----------------------------------------------------------------
    Charge (ESU x 10^10)
                 0.0000
    Dipole Moment (Debye)
         X      -0.0000      Y       0.0000      Z      -0.0000
       Tot       0.0000
    Quadrupole Moments (Debye-Ang)
        XX     -16.9977     XY      -0.0006     YY     -16.8749
        XZ      -0.0000     YZ      -0.0000     ZZ     -16.8775

 Total job time:  6.18s(wall), 5.62s(cpu)
        *  Thank you very much for using Q-Chem.  Have a nice day.  *
