 Q-Chem 5.0, Q-Chem, Inc., Pleasanton, CA (2017)
 Q-Chem 5.0.2 for Intel X86 EM64T Linux

User input:
--------------------------------------------------------------
$rem
SCF_PRINT                     1
BASIS                         6-311++g**
SCF_SAVE_MATRICES             1
SCF_CONVERGENCE               5
SCF_FINAL_PRINT               1
METHOD                        hf
JOBTYPE                       sp
$end

$molecule
0 1
F    0.324738231    -9.6172e-05    0.367513243
H    0.106356599    -1.5606e-05    1.274535595
$end

--------------------------------------------------------------

             Standard Nuclear Orientation (Angstroms)
    I     Atom           X                Y                Z
 ----------------------------------------------------------------
    1      F       0.0000000000    -0.0000000000    -0.0932941633
    2      H       0.0000000000     0.0000000000     0.8396474698
 ----------------------------------------------------------------

    8    -100.0517917465      9.41e-07  Convergence criterion met
 Total energy in the final basis set =     -100.0517917465

                    Orbital Energies (a.u.)
 --------------------------------------------------------------

 Alpha MOs
 -- Occupied --
-26.300  -1.598  -0.764  -0.650  -0.650

          Ground-State Mulliken Net Atomic Charges

     Atom                 Charge (a.u.)
  ----------------------------------------
      1 F                    -0.307441
      2 H                     0.307441
  ----------------------------------------
  Sum of atomic charges =    -0.000000

                    Cartesian Multipole Moments
 -----------------------------------------------------------------
    Charge (ESU x 10^10)
                -0.0000
    Dipole Moment (Debye)
         X       0.0000      Y      -0.0000      Z       2.1002
       Tot       2.1002
    Quadrupole Moments (Debye-Ang)
        XX      -5.7030     XY      -0.0000     YY      -5.7030
        XZ      -0.0000     YZ       0.0000     ZZ      -3.5245

 Total job time:  1.28s(wall), 0.98s(cpu)
        *  Thank you very much for using Q-Chem.  Have a nice day.  *
