 Q-Chem 5.0, Q-Chem, Inc., Pleasanton, CA (2017)
 Q-Chem 5.0.2 for Intel X86 EM64T Linux

User input:
--------------------------------------------------------------
$rem
SCF_PRINT                     1
BASIS                         6-311++g**
SCF_SAVE_MATRICES             1
SCF_CONVERGENCE               5
SCF_FINAL_PRINT               1
METHOD                        hf
JOBTYPE                       sp
$end

$molecule
0 1
H    0.007708134    0.214277133    0.052325531
C    0.010385622    0.200473849    1.133644571
C    1.217878091    0.246168636    1.828432064
C    1.221255777    0.22318328    3.221703755
C    0.017504067    0.154434365    3.920526125
C    -1.189794814    0.108384428    3.226223411
C    -1.193620703    0.131422512    1.832737209
H    2.152051476    0.294829039    1.28581497
H    2.158358824    0.255184368    3.760583554
H    0.020469186    0.133277566    5.001767838
H    -2.12372701    0.050629146    3.768357732
H    -2.130144916    0.090891901    1.293508374
$end

--------------------------------------------------------------

             Standard Nuclear Orientation (Angstroms)
    I     Atom           X                Y                Z
 ----------------------------------------------------------------
    1      H       0.6958377480     2.3753313695    -0.0031609366
    2      C       0.3918900559     1.3375218604     0.0008126278
    3      C       1.3542899216     0.3292351162     0.0005359006
    4      C       0.9623248923    -1.0079668698     0.0004659104
    5      C      -0.3917913311    -1.3373094497     0.0005922952
    6      C      -1.3541607297    -0.3295433172     0.0005131380
    7      C      -0.9625616946     1.0079914905     0.0006535495
    8      H       2.4050013970     0.5850935079    -0.0042534095
    9      H       1.7091363197    -1.7901668431    -0.0032112926
   10      H      -0.6958113809    -2.3751439216    -0.0027932868
   11      H      -2.4049619355    -0.5850288568    -0.0038003534
   12      H      -1.7091488348     1.7903417617    -0.0042212499
 ----------------------------------------------------------------

    6    -230.7563619372      6.39e-06  Convergence criterion met
 Total energy in the final basis set =     -230.7563619372

                    Orbital Energies (a.u.)
 --------------------------------------------------------------

 Alpha MOs
 -- Occupied --
-11.238 -11.238 -11.238 -11.236 -11.236 -11.236  -1.153  -1.017
 -1.017  -0.826  -0.826  -0.712  -0.645  -0.621  -0.590  -0.590
 -0.502  -0.496  -0.496  -0.337  -0.337

          Ground-State Mulliken Net Atomic Charges

     Atom                 Charge (a.u.)
  ----------------------------------------
      1 H                     0.192542
      2 C                    -0.192414
      3 C                    -0.192593
      4 C                    -0.192523
      5 C                    -0.192531
      6 C                    -0.192611
      7 C                    -0.192501
      8 H                     0.192520
      9 H                     0.192533
     10 H                     0.192520
     11 H                     0.192516
     12 H                     0.192542
  ----------------------------------------
  Sum of atomic charges =    -0.000000

                    Cartesian Multipole Moments
 -----------------------------------------------------------------
    Charge (ESU x 10^10)
                -0.0000
    Dipole Moment (Debye)
         X       0.0000      Y       0.0001      Z      -0.0185
       Tot       0.0185
    Quadrupole Moments (Debye-Ang)
        XX     -31.9199     XY       0.0001     YY     -31.9205
        XZ       0.0005     YZ      -0.0036     ZZ     -41.3002

 Total job time:  92.96s(wall), 89.27s(cpu)
        *  Thank you very much for using Q-Chem.  Have a nice day.  *
