 Q-Chem 5.0, Q-Chem, Inc., Pleasanton, CA (2017)
 Q-Chem 5.0.2 for Intel X86 EM64T Linux

User input:
--------------------------------------------------------------
$rem
SCF_PRINT                     1
BASIS                         6-311++g**
SCF_SAVE_MATRICES             1
SCF_CONVERGENCE               5
SCF_FINAL_PRINT               1
METHOD                        hf
JOBTYPE                       sp
$end

$molecule
0 1
C    -2.0071056    0.7638459    -0.1083509
O    -1.3885044    1.9298523    -0.4431206
H    -0.5238121    1.9646519    -0.0064609
C    -1.4630807    -0.151912    0.794993
C    -2.1475789    -1.3295094    1.0883677
C    -3.3743208    -1.6031427    0.4895864
C    -3.9143727    -0.6838545    -0.4091028
C    -3.2370496    0.4929609    -0.7096126
H    -0.510651    0.0566569    1.2642563
H    -1.7151135    -2.0321452    1.7878417
H    -3.9024664    -2.5173865    0.7197947
H    -4.867073    -0.8822939    -0.8811319
H    -3.6431662    1.2134345    -1.405759
$end

--------------------------------------------------------------

             Standard Nuclear Orientation (Angstroms)
    I     Atom           X                Y                Z
 ----------------------------------------------------------------
    1      C       0.9430898996     0.0233749359     0.0037918507
    2      O       2.3018557039     0.1131709873     0.0026606102
    3      H       2.6766937070    -0.7787280208    -0.0572402251
    4      C       0.2629741388    -1.1964806059     0.0047050992
    5      C      -1.1302056723    -1.2157524907     0.0001503940
    6      C      -1.8545653380    -0.0268026215    -0.0031963452
    7      C      -1.1704380112     1.1882501877    -0.0008301003
    8      C       0.2199349401     1.2169818653     0.0013503484
    9      H       0.8212090119    -2.1234047793     0.0087999013
   10      H      -1.6457715076    -2.1666345667    -0.0014030285
   11      H      -2.9350322909    -0.0456730811    -0.0064261177
   12      H      -1.7197366217     2.1199672725    -0.0021861335
   13      H       0.7630523285     2.1516776520     0.0013432413
 ----------------------------------------------------------------

    8    -305.6383249433      3.80e-06  Convergence criterion met
 Total energy in the final basis set =     -305.6383249433

                    Orbital Energies (a.u.)
 --------------------------------------------------------------

 Alpha MOs
 -- Occupied --
-20.594 -11.308 -11.246 -11.244 -11.238 -11.231 -11.231  -1.411
 -1.151  -1.024  -1.009  -0.851  -0.827  -0.738  -0.689  -0.656
 -0.614  -0.595  -0.593  -0.571  -0.521  -0.497  -0.485  -0.344
 -0.317

          Ground-State Mulliken Net Atomic Charges

     Atom                 Charge (a.u.)
  ----------------------------------------
      1 C                    -0.737973
      2 O                    -0.293761
      3 H                     0.266587
      4 C                     0.386817
      5 C                    -0.356999
      6 C                    -0.230793
      7 C                    -0.387988
      8 C                     0.339572
      9 H                     0.180323
     10 H                     0.202197
     11 H                     0.188376
     12 H                     0.202785
     13 H                     0.240856
  ----------------------------------------
  Sum of atomic charges =     0.000000

                    Cartesian Multipole Moments
 -----------------------------------------------------------------
    Charge (ESU x 10^10)
                 0.0000
    Dipole Moment (Debye)
         X      -0.2768      Y      -1.4584      Z      -0.1013
       Tot       1.4878
    Quadrupole Moments (Debye-Ang)
        XX     -38.3306     XY      -4.7993     YY     -35.5664
        XZ      -0.3059     YZ       0.1031     ZZ     -46.3845

 Total job time:  141.92s(wall), 140.53s(cpu)
        *  Thank you very much for using Q-Chem.  Have a nice day.  *
