 Q-Chem 5.0, Q-Chem, Inc., Pleasanton, CA (2017)
 Q-Chem 5.0.2 for Intel X86 EM64T Linux

User input:
--------------------------------------------------------------
$rem
SCF_PRINT                     1
BASIS                         6-311++g**
SCF_SAVE_MATRICES             1
SCF_CONVERGENCE               5
SCF_FINAL_PRINT               1
METHOD                        hf
JOBTYPE                       sp
$end

$molecule
0 1
C    -0.248215463    0.147563142    -2.354598055
Cl    -0.430872029    0.266976908    -4.12111099
H    -1.097215819    -0.394125438    -1.955018213
H    0.671578312    -0.381551292    -2.136340484
H    -0.212788793    1.148538795    -1.941709395
$end

--------------------------------------------------------------

             Standard Nuclear Orientation (Angstroms)
    I     Atom           X                Y                Z
 ----------------------------------------------------------------
    1      C       1.1238641222    -0.0000134715    -0.0000030437
    2      Cl     -0.6560771740    -0.0000139085     0.0000107391
    3      H       1.4696442598     0.9898002103    -0.2731278210
    4      H       1.4703691154    -0.2582083798     0.9934196856
    5      H       1.4701138502    -0.7312745572    -0.7204561670
 ----------------------------------------------------------------

    7    -499.1325414601      6.20e-06  Convergence criterion met
 Total energy in the final basis set =     -499.1325414601

                    Orbital Energies (a.u.)
 --------------------------------------------------------------

 Alpha MOs
 -- Occupied --
******* -11.292 -10.550  -8.019  -8.016  -8.016  -1.131  -0.918
 -0.621  -0.621  -0.548  -0.436  -0.436

          Ground-State Mulliken Net Atomic Charges

     Atom                 Charge (a.u.)
  ----------------------------------------
      1 C                    -0.524065
      2 Cl                    0.028350
      3 H                     0.165233
      4 H                     0.165245
      5 H                     0.165237
  ----------------------------------------
  Sum of atomic charges =     0.000000

                    Cartesian Multipole Moments
 -----------------------------------------------------------------
    Charge (ESU x 10^10)
                 0.0000
    Dipole Moment (Debye)
         X       2.2513      Y       0.0001      Z      -0.0000
       Tot       2.2513
    Quadrupole Moments (Debye-Ang)
        XX     -18.3534     XY      -0.0008     YY     -20.1197
        XZ       0.0006     YZ       0.0000     ZZ     -20.1205

 Total job time:  8.43s(wall), 8.15s(cpu)
        *  Thank you very much for using Q-Chem.  Have a nice day.  *
