 Q-Chem 5.0, Q-Chem, Inc., Pleasanton, CA (2017)
 Q-Chem 5.0.2 for Intel X86 EM64T Linux

User input:
--------------------------------------------------------------
$rem
SCF_PRINT                     1
BASIS                         6-311++g**
SCF_SAVE_MATRICES             1
SCF_CONVERGENCE               5
SCF_FINAL_PRINT               1
METHOD                        hf
JOBTYPE                       sp
$end

$molecule
0 1
C    -0.45374374    0.000182739    1.059200327
C    0.583994572    -2.8402e-05    1.98824481
C    1.911123808    -0.00014276    1.563951774
C    2.200015462    -6.0948e-05    0.200857138
C    1.171852556    0.000151689    -0.738466754
H    -1.486276324    0.000268975    1.377240603
H    0.351319424    -0.000103142    3.044291019
H    2.712830438    -0.00029039    2.288837764
H    3.227238082    -0.000162856    -0.136887263
H    1.3832747    0.000214894    -1.797905634
C    -0.149841459    0.000281008    -0.299799844
Cl    -1.432288391    0.000559697    -1.466414983
O    -3.696572914    0.000152987    -3.61861755
C    -4.843989757    0.001944155    -3.211415447
C    -6.003097569    -0.000552348    -4.185876962
C    -5.132206123    0.006671195    -1.72526393
H    -5.91776328    0.87330307    -4.829393925
H    -5.918845591    -0.878698982    -4.823653257
H    -6.973224937    0.001637767    -3.699032662
H    -6.193070441    0.008055248    -1.495292581
H    -4.662540213    -0.867116113    -1.276801052
H    -4.661407822    0.882569128    -1.28215677
$end

--------------------------------------------------------------

             Standard Nuclear Orientation (Angstroms)
    I     Atom           X                Y                Z
 ----------------------------------------------------------------
    1      C       2.1614860863    -1.1599743445    -0.0014460035
    2      C       3.5386426164    -1.3684554655    -0.0015644254
    3      C       4.4162732893    -0.2863004308    -0.0003456445
    4      C       3.9109831140     1.0122239059     0.0009835556
    5      C       2.5362034504     1.2345507802     0.0011185292
    6      H       1.4720591886    -1.9918173749    -0.0023878854
    7      H       3.9227016942    -2.3793307557    -0.0026123343
    8      H       5.4841166585    -0.4533446554    -0.0004270307
    9      H       4.5851708416     1.8576395622     0.0019205525
   10      H       2.1325072835     2.2366178569     0.0021412277
   11      C       1.6709958640     0.1433504727    -0.0000919670
   12      Cl     -0.0410411543     0.4164627386     0.0000860688
   13      O      -3.1144582470     0.9759871484    -0.0004287299
   14      C      -3.8511266511     0.0066051467     0.0001794196
   15      C      -5.3546948048     0.1865723477    -0.0024682810
   16      C      -3.2778402221    -1.3944903337     0.0035668912
   17      H      -5.6361440039     0.7707143469     0.8719365378
   18      H      -5.6335075189     0.7671563678    -0.8800696570
   19      H      -5.8994197742    -0.7522795123    -0.0013857785
   20      H      -4.0392265389    -2.1681908922     0.0039675269
   21      H      -2.6390227804    -1.5113435009    -0.8701990346
   22      H      -2.6414059059    -1.5080776574     0.8794900988
 ----------------------------------------------------------------

    8    -881.6913808006      8.49e-06  Convergence criterion met
 Total energy in the final basis set =     -881.6913808006

                    Orbital Energies (a.u.)
 --------------------------------------------------------------

 Alpha MOs
 -- Occupied --
******* -20.540 -11.335 -11.297 -11.247 -11.247 -11.246 -11.245
-11.242 -11.233 -11.232 -10.552  -8.021  -8.017  -8.017  -1.383
 -1.186  -1.113  -1.037  -1.028  -0.991  -0.970  -0.842  -0.816
 -0.741  -0.708  -0.645  -0.643  -0.640  -0.636  -0.618  -0.600
 -0.584  -0.565  -0.565  -0.537  -0.534  -0.512  -0.506  -0.477
 -0.460  -0.443  -0.410  -0.347  -0.329

          Ground-State Mulliken Net Atomic Charges

     Atom                 Charge (a.u.)
  ----------------------------------------
      1 C                    -0.546025
      2 C                    -0.226837
      3 C                    -0.506151
      4 C                    -0.378058
      5 C                    -0.162420
      6 H                     0.195400
      7 H                     0.223973
      8 H                     0.180324
      9 H                     0.214798
     10 H                     0.238296
     11 C                     0.256585
     12 Cl                    0.531805
     13 O                    -0.308512
     14 C                     0.604598
     15 C                    -0.797606
     16 C                    -0.497742
     17 H                     0.176965
     18 H                     0.176977
     19 H                     0.131376
     20 H                     0.124720
     21 H                     0.183771
     22 H                     0.183762
  ----------------------------------------
  Sum of atomic charges =    -0.000000

                    Cartesian Multipole Moments
 -----------------------------------------------------------------
    Charge (ESU x 10^10)
                -0.0000
    Dipole Moment (Debye)
         X      -0.5725      Y      -2.7864      Z       0.0015
       Tot       2.8446
    Quadrupole Moments (Debye-Ang)
        XX     -49.1800     XY       7.8586     YY     -69.7833
        XZ      -0.0028     YZ       0.0107     ZZ     -77.0254

 Total job time:  659.55s(wall), 651.10s(cpu)
        *  Thank you very much for using Q-Chem.  Have a nice day.  *
