 Q-Chem 5.0, Q-Chem, Inc., Pleasanton, CA (2017)
 Q-Chem 5.0.2 for Intel X86 EM64T Linux

User input:
--------------------------------------------------------------
$rem
SCF_PRINT                     1
BASIS                         6-311++g**
SCF_SAVE_MATRICES             1
SCF_CONVERGENCE               5
SCF_FINAL_PRINT               1
METHOD                        hf
JOBTYPE                       sp
$end

$molecule
0 1
H    0.022106668    0.337720036    0.044305376
C    0.026919353    0.297157256    1.127793236
C    1.232420009    0.374285365    1.823206501
C    1.238505395    0.31830385    3.215636232
C    0.039447508    0.184540972    3.91325517
C    -1.166219961    0.107113476    3.218629152
C    -1.172980038    0.163913404    1.825514693
H    2.16553244    0.474316067    1.280310128
H    2.176629361    0.375131147    3.756175076
H    0.04471698    0.13704066    4.996380563
H    -2.098861603    -0.000562861    3.760947121
H    -2.110703107    0.101604635    1.284610113
I    -0.205324409    -3.368518313    1.883768735
C    0.06919685    -5.471929013    1.872749216
H    0.07360107    -5.805636321    0.83982588
H    1.018048659    -5.689860688    2.352917164
H    -0.752874404    -5.922024645    2.420412903
$end

--------------------------------------------------------------

             Standard Nuclear Orientation (Angstroms)
    I     Atom           X                Y                Z
 ----------------------------------------------------------------
    1      H       2.0707567593    -1.5272244465     1.9334892873
    2      C       2.2066190075    -0.8621066580     1.0880460777
    3      C       2.4570582604     0.4926143582     1.2996857118
    4      C       2.6278579320     1.3478437553     0.2127442836
    5      C       2.5476905385     0.8490883980    -1.0861478555
    6      C       2.2970752916    -0.5052449671    -1.2985331234
    7      C       2.1269366082    -1.3615322297    -0.2113970791
    8      H       2.5154388520     0.8813143944     2.3101041451
    9      H       2.8195002165     2.4021558807     0.3776301115
   10      H       2.6766808382     1.5153177418    -1.9316918390
   11      H       2.2310906730    -0.8928538413    -2.3089433352
   12      H       1.9298538595    -2.4149827766    -0.3762759345
   13      I      -1.2951073291    -0.0725639998     0.0030813079
   14      C      -3.3556434291     0.4308866880    -0.0203347105
   15      H      -3.8516642260    -0.1439216701     0.7554676503
   16      H      -3.4439969787     1.4956057645     0.1718687419
   17      H      -3.7525368073     0.1811848744    -0.9993379737
 ----------------------------------------------------------------

    7   -7187.1916231519      5.47e-06  Convergence criterion met
 Total energy in the final basis set =    -7187.1916231519

                    Orbital Energies (a.u.)
 --------------------------------------------------------------

 Alpha MOs
 -- Occupied --
*******-180.842-169.649-169.648-169.648 -37.896 -33.084 -33.080
-33.080 -24.268 -24.267 -24.267 -24.263 -24.263 -11.272 -11.236
-11.235 -11.235 -11.234 -11.234 -11.233  -7.213  -5.447  -5.436
 -5.436  -2.370  -2.365  -2.365  -2.353  -2.353  -1.151  -1.014
 -1.014  -0.989  -0.823  -0.823  -0.788  -0.708  -0.641  -0.618
 -0.598  -0.598  -0.587  -0.587  -0.507  -0.493  -0.493  -0.452
 -0.357  -0.355  -0.332  -0.330

          Ground-State Mulliken Net Atomic Charges

     Atom                 Charge (a.u.)
  ----------------------------------------
      1 H                     0.200823
      2 C                    -0.181581
      3 C                    -0.199107
      4 C                    -0.202915
      5 C                    -0.213955
      6 C                    -0.164077
      7 C                    -0.250250
      8 H                     0.199650
      9 H                     0.198628
     10 H                     0.198348
     11 H                     0.201805
     12 H                     0.197281
     13 I                     0.026852
     14 C                    -0.490387
     15 H                     0.158770
     16 H                     0.160749
     17 H                     0.159364
  ----------------------------------------
  Sum of atomic charges =    -0.000000

                    Cartesian Multipole Moments
 -----------------------------------------------------------------
    Charge (ESU x 10^10)
                -0.0000
    Dipole Moment (Debye)
         X      -1.5909      Y       0.5318      Z      -0.0247
       Tot       1.6776
    Quadrupole Moments (Debye-Ang)
        XX     -67.7112     XY      -0.2199     YY     -68.6985
        XZ      -0.0015     YZ       0.0043     ZZ     -68.6249

 Total job time:  414.19s(wall), 388.50s(cpu)
        *  Thank you very much for using Q-Chem.  Have a nice day.  *
