 Q-Chem 5.0, Q-Chem, Inc., Pleasanton, CA (2017)
 Q-Chem 5.0.2 for Intel X86 EM64T Linux

User input:
--------------------------------------------------------------
$rem
SCF_PRINT                     1
BASIS                         6-311++g**
SCF_SAVE_MATRICES             1
SCF_CONVERGENCE               5
SCF_FINAL_PRINT               1
METHOD                        hf
JOBTYPE                       sp
$end

$molecule
0 1
H    0.007708134    0.214277133    0.052325531
C    0.010385622    0.200473849    1.133644571
C    1.217878091    0.246168636    1.828432064
C    1.221255777    0.22318328    3.221703755
C    0.017504067    0.154434365    3.920526125
C    -1.189794814    0.108384428    3.226223411
C    -1.193620703    0.131422512    1.832737209
H    2.152051476    0.294829039    1.28581497
H    2.158358824    0.255184368    3.760583554
H    0.020469186    0.133277566    5.001767838
H    -2.12372701    0.050629146    3.768357732
H    -2.130144916    0.090891901    1.293508374
Br    -0.037667189    -3.295073415    1.773239996
C    0.090914423    -5.222622362    1.868971791
H    0.02222022    -5.618700696    0.863215296
H    1.044380918    -5.477357114    2.315266587
H    -0.72584639    -5.587601469    2.479578125
$end

--------------------------------------------------------------

             Standard Nuclear Orientation (Angstroms)
    I     Atom           X                Y                Z
 ----------------------------------------------------------------
    1      H      -1.5846014260    -2.3698961464     0.6258317622
    2      C      -1.7794930830    -1.3408596686     0.3564811815
    3      C      -1.9685824585    -0.9939344416    -0.9802101933
    4      C      -2.2145960852     0.3329485924    -1.3274917069
    5      C      -2.2715211447     1.3131487161    -0.3385202449
    6      C      -2.0821783853     0.9667006359     0.9978444099
    7      C      -1.8361713131    -0.3602828106     1.3456153676
    8      H      -1.9197446939    -1.7540351933    -1.7478968344
    9      H      -2.3578840427     0.6025162685    -2.3649787947
   10      H      -2.4591849991     2.3433950919    -0.6085475156
   11      H      -2.1220011558     1.7279589526     1.7649001859
   12      H      -1.6844517637    -0.6287553140     2.3821440752
   13      Br      1.5275183580    -0.0766252705     0.0472421627
   14      C       3.3993013588     0.3372941692    -0.2101327503
   15      H       3.9823754898    -0.5277300158     0.0812446416
   16      H       3.5550668724     0.5676565222    -1.2569553174
   17      H       3.6467298549     1.1906831445     0.4092657204
 ----------------------------------------------------------------

    7   -2842.7484255692      4.98e-06  Convergence criterion met
 Total energy in the final basis set =    -2842.7484255692

                    Orbital Energies (a.u.)
 --------------------------------------------------------------

 Alpha MOs
 -- Occupied --
******* -65.138 -58.498 -58.496 -58.496 -11.280 -11.233 -11.232
-11.232 -11.231 -11.231 -11.230  -9.817  -7.431  -7.423  -7.423
 -3.171  -3.167  -3.167  -3.157  -3.157  -1.147  -1.055  -1.011
 -1.011  -0.890  -0.820  -0.820  -0.706  -0.640  -0.615  -0.605
 -0.605  -0.585  -0.585  -0.513  -0.491  -0.491  -0.483  -0.393
 -0.392  -0.331  -0.330

          Ground-State Mulliken Net Atomic Charges

     Atom                 Charge (a.u.)
  ----------------------------------------
      1 H                     0.199390
      2 C                    -0.159693
      3 C                    -0.192551
      4 C                    -0.211906
      5 C                    -0.233094
      6 C                    -0.191623
      7 C                    -0.183352
      8 H                     0.198590
      9 H                     0.196872
     10 H                     0.195630
     11 H                     0.199002
     12 H                     0.197922
     13 Br                   -0.137616
     14 C                    -0.325497
     15 H                     0.146219
     16 H                     0.151499
     17 H                     0.150209
  ----------------------------------------
  Sum of atomic charges =    -0.000000

                    Cartesian Multipole Moments
 -----------------------------------------------------------------
    Charge (ESU x 10^10)
                -0.0000
    Dipole Moment (Debye)
         X       1.9370      Y       0.4817      Z      -0.2996
       Tot       2.0183
    Quadrupole Moments (Debye-Ang)
        XX     -56.8416     XY       0.2439     YY     -58.1647
        XZ      -0.1398     YZ       0.0483     ZZ     -58.1228

 Total job time:  389.01s(wall), 382.56s(cpu)
        *  Thank you very much for using Q-Chem.  Have a nice day.  *
