 Q-Chem 5.0, Q-Chem, Inc., Pleasanton, CA (2017)
 Q-Chem 5.0.2 for Intel X86 EM64T Linux

User input:
--------------------------------------------------------------
$rem
SCF_PRINT                     1
BASIS                         6-311++g**
SCF_SAVE_MATRICES             1
SCF_CONVERGENCE               5
SCF_FINAL_PRINT               1
METHOD                        hf
JOBTYPE                       sp
$end

$molecule
0 1
O    1.3531168    1.9382724    0.4723133
C    2.0369747    0.7865043    0.1495491
H    1.7842846    2.3487495    1.229711
C    1.5904026    0.069686    -0.9574153
C    2.2417367    -1.1069765    -1.312811
C    3.3315674    -1.5665603    -0.5748636
C    3.7696838    -0.8396901    0.5286439
C    3.1224836    0.3383498    0.8960491
H    0.7445512    0.4367983    -1.5218583
H    1.8921463    -1.6649726    -2.1701843
H    3.8330227    -2.4811537    -0.8566666
H    4.6137632    -1.1850101    1.1092635
H    3.4598854    0.9030376    1.7569489
$end

--------------------------------------------------------------

             Standard Nuclear Orientation (Angstroms)
    I     Atom           X                Y                Z
 ----------------------------------------------------------------
    1      O       2.3058214749    -0.1109505809    -0.0071141863
    2      C       0.9306061256    -0.0267630341     0.0030500899
    3      H       2.6678282515     0.7810926695     0.0283587664
    4      C       0.2192515632    -1.2236756414     0.0034923267
    5      C      -1.1713452691    -1.1875746084    -0.0002516926
    6      C      -1.8504773518     0.0299200095    -0.0012805563
    7      C      -1.1277302048     1.2197304998     0.0003408599
    8      C       0.2654847141     1.1955463401     0.0002969768
    9      H       0.7574693742    -2.1613065217     0.0048533147
   10      H      -1.7230003366    -2.1172665576    -0.0036629950
   11      H      -2.9307155049     0.0506599992    -0.0038923496
   12      H      -1.6422025006     2.1706000908    -0.0002367041
   13      H       0.8293114543     2.1207235741    -0.0023945686
 ----------------------------------------------------------------

    8    -305.6383322133      3.75e-06  Convergence criterion met
 Total energy in the final basis set =     -305.6383322133

                    Orbital Energies (a.u.)
 --------------------------------------------------------------

 Alpha MOs
 -- Occupied --
-20.591 -11.308 -11.247 -11.244 -11.239 -11.233 -11.232  -1.405
 -1.153  -1.026  -1.010  -0.851  -0.827  -0.736  -0.689  -0.655
 -0.614  -0.597  -0.589  -0.571  -0.520  -0.500  -0.486  -0.346
 -0.319

          Ground-State Mulliken Net Atomic Charges

     Atom                 Charge (a.u.)
  ----------------------------------------
      1 O                    -0.298567
      2 C                    -0.719788
      3 H                     0.263538
      4 C                     0.304593
      5 C                    -0.357166
      6 C                    -0.247022
      7 C                    -0.336500
      8 C                     0.371914
      9 H                     0.242288
     10 H                     0.203507
     11 H                     0.188455
     12 H                     0.203287
     13 H                     0.181462
  ----------------------------------------
  Sum of atomic charges =     0.000000

                    Cartesian Multipole Moments
 -----------------------------------------------------------------
    Charge (ESU x 10^10)
                 0.0000
    Dipole Moment (Debye)
         X      -0.4220      Y       1.4518      Z       0.0570
       Tot       1.5129
    Quadrupole Moments (Debye-Ang)
        XX     -38.7384     XY       4.7642     YY     -35.3675
        XZ       0.2139     YZ       0.0521     ZZ     -46.3653

 Total job time:  162.70s(wall), 160.53s(cpu)
        *  Thank you very much for using Q-Chem.  Have a nice day.  *
