 Q-Chem 5.0, Q-Chem, Inc., Pleasanton, CA (2017)
 Q-Chem 5.0.2 for Intel X86 EM64T Linux

User input:
--------------------------------------------------------------
$rem
SCF_PRINT                     1
BASIS                         6-311++g**
SCF_SAVE_MATRICES             1
SCF_CONVERGENCE               5
SCF_FINAL_PRINT               1
METHOD                        hf
JOBTYPE                       sp
$end

$molecule
0 1
C    -0.222998033    0.125060181    -2.031995678
F    -0.353854222    0.228242626    -3.40533891
H    -1.074191041    -0.417537604    -1.631229882
H    0.694086089    -0.408170093    -1.799115801
H    -0.187197902    1.12079354    -1.599918593
$end

--------------------------------------------------------------

             Standard Nuclear Orientation (Angstroms)
    I     Atom           X                Y                Z
 ----------------------------------------------------------------
    1      C       0.6320663503     0.0000129417     0.0000180304
    2      F      -0.7513502861     0.0000020742    -0.0000254085
    3      H       0.9898484941     0.9168309173     0.4593565262
    4      H       0.9897568126    -0.8563230262     0.5642494479
    5      H       0.9901491666    -0.0606042095    -1.0234854804
 ----------------------------------------------------------------

    7    -139.0828485385      9.64e-06  Convergence criterion met
 Total energy in the final basis set =     -139.0828485385

                    Orbital Energies (a.u.)
 --------------------------------------------------------------

 Alpha MOs
 -- Occupied --
-26.279 -11.308  -1.588  -0.959  -0.696  -0.696  -0.676  -0.533
 -0.533

          Ground-State Mulliken Net Atomic Charges

     Atom                 Charge (a.u.)
  ----------------------------------------
      1 C                    -0.135605
      2 F                    -0.247488
      3 H                     0.127698
      4 H                     0.127696
      5 H                     0.127699
  ----------------------------------------
  Sum of atomic charges =    -0.000000

                    Cartesian Multipole Moments
 -----------------------------------------------------------------
    Charge (ESU x 10^10)
                 0.0000
    Dipole Moment (Debye)
         X       2.2522      Y       0.0000      Z      -0.0001
       Tot       2.2522
    Quadrupole Moments (Debye-Ang)
        XX     -12.6594     XY       0.0000     YY     -11.7501
        XZ      -0.0005     YZ       0.0001     ZZ     -11.7510

 Total job time:  4.36s(wall), 3.95s(cpu)
        *  Thank you very much for using Q-Chem.  Have a nice day.  *
