 Q-Chem 5.0, Q-Chem, Inc., Pleasanton, CA (2017)
 Q-Chem 5.0.2 for Intel X86 EM64T Linux

User input:
--------------------------------------------------------------
$rem
SCF_PRINT                     1
BASIS                         6-311++g**
SCF_SAVE_MATRICES             1
SCF_CONVERGENCE               5
SCF_FINAL_PRINT               1
METHOD                        hf
JOBTYPE                       sp
$end

$molecule
0 1
C    -0.235164025    0.002086093    0.13275518
C    -0.238177601    0.001189285    1.52560369
C    0.955845752    -0.002137887    2.242723198
C    2.165456711    -0.004625136    1.552251769
C    2.182877035    -0.003791485    0.15897686
C    0.981045016    -0.000426079    -0.546038572
Cl    -1.748955125    0.004260493    2.378483547
H    0.930822557    -0.002763332    3.32293354
H    3.093652555    -0.007217456    2.107162249
H    3.124112655    -0.005745788    -0.372313104
H    0.985592531    0.000253534    -1.627466794
H    -1.172880264    0.004699747    -0.404018294
$end

--------------------------------------------------------------

             Standard Nuclear Orientation (Angstroms)
    I     Atom           X                Y                Z
 ----------------------------------------------------------------
    1      C       0.1742678286    -1.2114835613    -0.0000189714
    2      C      -0.5130629086    -0.0000326480    -0.0000091628
    3      C       0.1742019310     1.2114252615    -0.0000181542
    4      C       1.5669946050     1.2047754586    -0.0000008880
    5      C       2.2670808369     0.0000354857     0.0000180361
    6      C       1.5670657183    -1.2047205562    -0.0000001709
    7      Cl     -2.2479583546    -0.0000032943     0.0000106851
    8      H      -0.3786065698     2.1398021762    -0.0000259748
    9      H       2.1025087135     2.1442990215    -0.0000003548
   10      H       3.3479126162     0.0000748899     0.0000465252
   11      H       2.1026420656    -2.1442236788     0.0000035783
   12      H      -0.3784528646    -2.1398930473    -0.0000295538
 ----------------------------------------------------------------

    8    -689.6800045922      5.32e-06  Convergence criterion met
 Total energy in the final basis set =     -689.6800045922

                    Orbital Energies (a.u.)
 --------------------------------------------------------------

 Alpha MOs
 -- Occupied --
******* -11.308 -11.254 -11.254 -11.253 -11.253 -11.249 -10.566
 -8.035  -8.032  -8.032  -1.195  -1.123  -1.035  -1.000  -0.850
 -0.823  -0.715  -0.651  -0.651  -0.607  -0.593  -0.546  -0.520
 -0.516  -0.471  -0.457  -0.353  -0.338

          Ground-State Mulliken Net Atomic Charges

     Atom                 Charge (a.u.)
  ----------------------------------------
      1 C                    -0.345218
      2 C                     0.542536
      3 C                    -0.345309
      4 C                    -0.451702
      5 C                    -0.211055
      6 C                    -0.451600
      7 Cl                    0.219008
      8 H                     0.212402
      9 H                     0.211620
     10 H                     0.195300
     11 H                     0.211622
     12 H                     0.212396
  ----------------------------------------
  Sum of atomic charges =     0.000000

                    Cartesian Multipole Moments
 -----------------------------------------------------------------
    Charge (ESU x 10^10)
                 0.0000
    Dipole Moment (Debye)
         X       1.9783      Y       0.0000      Z       0.0000
       Tot       1.9783
    Quadrupole Moments (Debye-Ang)
        XX     -46.6665     XY      -0.0001     YY     -42.4630
        XZ       0.0001     YZ      -0.0000     ZZ     -52.7882

 Total job time:  159.33s(wall), 154.37s(cpu)
        *  Thank you very much for using Q-Chem.  Have a nice day.  *
