 Q-Chem 5.0, Q-Chem, Inc., Pleasanton, CA (2017)
 Q-Chem 5.0.2 for Intel X86 EM64T Linux

User input:
--------------------------------------------------------------
$rem
   JOBTYPE              aimd
   AIMD_METHOD          bomd
   METHOD               hf
   BASIS                6-31g*
   TIME_STEP            20        (20 a.u. = 0.48 fs)
   AIMD_STEPS           200
   AIMD_INIT_VELOC      thermal
   AIMD_TEMP            298
$end

$molecule
   0 1
   C       -2.83034        2.46352        0.00000
   C       -1.31827        2.46353       -0.00000
   H       -3.34634        3.31757        0.26337
   H       -3.34634        1.60947       -0.26337
   H       -0.80227        3.31758        0.26337
   H       -0.80227        1.60948       -0.26337
$end

--------------------------------------------------------------

   10     -77.9905200669      1.80e-09  Convergence criterion met
 Total energy in the final basis set =      -77.9905200669

                    Orbital Energies (a.u.)
 --------------------------------------------------------------

 Alpha MOs
 -- Occupied --
-11.243 -11.242  -0.991  -0.825  -0.643  -0.549  -0.548  -0.331

          Ground-State Mulliken Net Atomic Charges

     Atom                 Charge (a.u.)
  ----------------------------------------
      1 C                    -0.378020
      2 C                    -0.378020
      3 H                     0.189009
      4 H                     0.189010
      5 H                     0.189010
      6 H                     0.189009
  ----------------------------------------
  Sum of atomic charges =    -0.000000

                    Cartesian Multipole Moments
 -----------------------------------------------------------------
    Charge (ESU x 10^10)
                 0.0000
    Dipole Moment (Debye)
         X       0.0000      Y      -0.0000      Z      -0.0000
       Tot       0.0000
    Quadrupole Moments (Debye-Ang)
        XX     -11.5718     XY       0.0000     YY     -12.4741
        XZ       0.0000     YZ       1.0205     ZZ     -15.4688

   12     -77.9901361742      1.07E-09  00000 Convergence criterion met
 Total energy in the final basis set = -77.99013617
   12     -77.9922355637      1.21E-09  00000 Convergence criterion met
 Total energy in the final basis set = -77.99223556
   11     -77.9964616062      9.98E-09  00000 Convergence criterion met
 Total energy in the final basis set = -77.99646161
   11     -78.0018248756      9.83E-09  00000 Convergence criterion met
 Total energy in the final basis set = -78.00182488
   11     -78.0071414359      9.71E-09  00000 Convergence criterion met
 Total energy in the final basis set = -78.00714144
   11     -78.0115024445      9.63E-09  00000 Convergence criterion met
 Total energy in the final basis set = -78.01150244
   11     -78.0145199815      9.66E-09  00000 Convergence criterion met
 Total energy in the final basis set = -78.00782593
   12     -78.0113693105      1.78E-09  00000 Convergence criterion met
 Total energy in the final basis set = -78.01136931
   12     -78.0143482330      1.70E-09  00000 Convergence criterion met
 Total energy in the final basis set = -78.01434823
   12     -78.0169609928      1.61E-09  00000 Convergence criterion met
 Total energy in the final basis set = -78.01696099
   12     -78.0193722410      1.51E-09  00000 Convergence criterion met
 Total energy in the final basis set = -78.01937224
   12     -78.0216064457      1.40E-09  00000 Convergence criterion met
 Total energy in the final basis set = -78.02160645
   11     -78.0235015704      9.88E-09  00000 Convergence criterion met
 Total energy in the final basis set = -78.02350157

             Standard Nuclear Orientation (Angstroms)
    I     Atom           X                Y                Z
 ----------------------------------------------------------------
    1      C      -2.6888846349     2.6615933356    -0.0957016829
    2      C      -1.4629352029     2.2710816690     0.0940014109
    3      H      -3.2651887661     3.2752675109     0.6361815647
    4      H      -3.2418452104     2.3324890947    -1.0153687217
    5      H      -0.9053582857     2.5122734778     1.0364306519
    6      H      -0.8466089377     1.6670942799    -0.6369987439
 ----------------------------------------------------------------

   12     -78.0247200376      1.17E-09  00000 Convergence criterion met
 Total energy in the final basis set = -78.02472004
 Total job time:  402.65s(wall), 401.82s(cpu)
        *  Thank you very much for using Q-Chem.  Have a nice day.  *
