 Q-Chem 5.0, Q-Chem, Inc., Pleasanton, CA (2017)
 Q-Chem 5.0.2 for Intel X86 EM64T Linux

User input:
--------------------------------------------------------------
$rem
SCF_PRINT                     1
BASIS                         6-311++g**
SCF_SAVE_MATRICES             1
SCF_CONVERGENCE               5
SCF_FINAL_PRINT               1
METHOD                        hf
JOBTYPE                       sp
$end

$molecule
0 1
C    0.092348417    -0.047899443    -0.084180609
Br    1.850295174    0.401756602    0.541215366
F    -0.041248424    -1.365231569    -0.186834437
F    -0.830122197    0.403465307    0.756154716
F    -0.127685037    0.489606579    -1.278313038
$end

--------------------------------------------------------------

             Standard Nuclear Orientation (Angstroms)
    I     Atom           X                Y                Z
 ----------------------------------------------------------------
    1      C       0.8033039118     0.0006593707     0.0001314617
    2      Br     -1.1159894553    -0.0000057659     0.0000159227
    3      F       1.2680139788    -0.5797145668    -1.1003050430
    4      F       1.2682257506     1.2425864947     0.0481973769
    5      F       1.2681833222    -0.6632890854     1.0519581034
 ----------------------------------------------------------------

    8   -2908.6432180801      3.83e-06  Convergence criterion met
 Total energy in the final basis set =    -2908.6432180801

                    Orbital Energies (a.u.)
 --------------------------------------------------------------

 Alpha MOs
 -- Occupied --
******* -65.204 -58.565 -58.563 -58.563 -26.376 -26.376 -26.375
-11.584  -9.884  -7.499  -7.489  -7.489  -3.239  -3.234  -3.234
 -3.223  -3.223  -1.775  -1.675  -1.675  -1.107  -0.973  -0.864
 -0.864  -0.820  -0.743  -0.743  -0.698  -0.698  -0.681  -0.565
 -0.462  -0.462

          Ground-State Mulliken Net Atomic Charges

     Atom                 Charge (a.u.)
  ----------------------------------------
      1 C                     0.222943
      2 Br                    0.101129
      3 F                    -0.108466
      4 F                    -0.107325
      5 F                    -0.108280
  ----------------------------------------
  Sum of atomic charges =     0.000000

                    Cartesian Multipole Moments
 -----------------------------------------------------------------
    Charge (ESU x 10^10)
                 0.0000
    Dipole Moment (Debye)
         X      -0.9352      Y       0.0065      Z       0.0013
       Tot       0.9352
    Quadrupole Moments (Debye-Ang)
        XX     -37.5864     XY       0.0102     YY     -40.0330
        XZ       0.0020     YZ      -0.0002     ZZ     -40.0388

 Total job time:  59.16s(wall), 57.83s(cpu)
        *  Thank you very much for using Q-Chem.  Have a nice day.  *
