 Q-Chem 5.0, Q-Chem, Inc., Pleasanton, CA (2017)
 Q-Chem 5.0.2 for Intel X86 EM64T Linux

User input:
--------------------------------------------------------------
$rem
SCF_PRINT                     1
BASIS                         6-311++g**
SCF_SAVE_MATRICES             1
SCF_CONVERGENCE               5
SCF_FINAL_PRINT               1
METHOD                        hf
JOBTYPE                       sp
$end

$molecule
0 1
C    -1.0064e-05    -8.2573e-05    -1.743091435
H    -3.612e-06    0.000105999    -2.828619365
H    -0.885658535    -0.511600583    -1.379811314
H    0.885727513    -0.511445556    -1.379800941
H    -0.00010144    1.022550877    -1.379525404
$end

--------------------------------------------------------------

             Standard Nuclear Orientation (Angstroms)
    I     Atom           X                Y                Z
 ----------------------------------------------------------------
    1      C      -0.0004608792     0.0000052810    -0.0000001950
    2      H      -1.0859880441    -0.0012894502    -0.0001427137
    3      H       0.3632976910    -0.4244157390     0.9303453512
    4      H       0.3637298895    -0.5928284358    -0.8330166456
    5      H       0.3617257390     1.0185019390    -0.0971848217
 ----------------------------------------------------------------

    6     -40.2091457350      6.65e-06  Convergence criterion met
 Total energy in the final basis set =      -40.2091457350

                    Orbital Energies (a.u.)
 --------------------------------------------------------------

 Alpha MOs
 -- Occupied --
-11.206  -0.945  -0.546  -0.546  -0.546

          Ground-State Mulliken Net Atomic Charges

     Atom                 Charge (a.u.)
  ----------------------------------------
      1 C                    -0.468500
      2 H                     0.117077
      3 H                     0.117140
      4 H                     0.117140
      5 H                     0.117143
  ----------------------------------------
  Sum of atomic charges =    -0.000000

                    Cartesian Multipole Moments
 -----------------------------------------------------------------
    Charge (ESU x 10^10)
                -0.0000
    Dipole Moment (Debye)
         X       0.0017      Y       0.0000      Z       0.0000
       Tot       0.0017
    Quadrupole Moments (Debye-Ang)
        XX      -8.4149     XY       0.0000     YY      -8.4245
        XZ       0.0000     YZ      -0.0000     ZZ      -8.4246

 Total job time:  2.58s(wall), 2.02s(cpu)
        *  Thank you very much for using Q-Chem.  Have a nice day.  *
