 Q-Chem 5.0, Q-Chem, Inc., Pleasanton, CA (2017)
 Q-Chem 5.0.2 for Intel X86 EM64T Linux

User input:
--------------------------------------------------------------
$rem
SCF_PRINT                     1
BASIS                         6-311++g**
SCF_SAVE_MATRICES             1
SCF_CONVERGENCE               5
SCF_FINAL_PRINT               1
METHOD                        hf
JOBTYPE                       sp
$end

$molecule
0 1
C    0.179810349    -0.077197552    -0.11802464
Cl    1.722679479    0.399031247    0.6280761
H    0.130360699    -1.159076002    -0.155096513
H    -0.630477191    0.314338739    0.48550704
H    0.134959164    0.335748179    -1.118887999
O    4.897505466    0.876848804    1.390216211
C    5.194460139    0.238307081    0.405156763
H    6.244196376    0.054496103    0.1283635
H    4.430085674    -0.188680322    -0.260183673
$end

--------------------------------------------------------------

             Standard Nuclear Orientation (Angstroms)
    I     Atom           X                Y                Z
 ----------------------------------------------------------------
    1      C       2.5631964329    -0.3169788735    -0.0002448962
    2      Cl      0.8856422683     0.2743899879     0.0002346261
    3      H       2.7203798240    -0.9173922131    -0.8885453946
    4      H       3.2299524898     0.5371567469    -0.0026440303
    5      H       2.7221710587    -0.9139432141     0.8900493885
    6      O      -2.3995459526     0.5845920588    -0.0002584201
    7      C      -2.4792148007    -0.6236763309     0.0000563558
    8      H      -3.4515250894    -1.1403578728     0.0002569305
    9      H      -1.5844190158    -1.2628984854     0.0000930650
 ----------------------------------------------------------------

    9    -613.0327962541      2.54e-06  Convergence criterion met
 Total energy in the final basis set =     -613.0327962541

                    Orbital Energies (a.u.)
 --------------------------------------------------------------

 Alpha MOs
 -- Occupied --
******* -20.570 -11.336 -11.289 -10.548  -8.016  -8.013  -8.013
 -1.397  -1.129  -0.916  -0.864  -0.687  -0.643  -0.619  -0.619
 -0.544  -0.526  -0.440  -0.434  -0.430

          Ground-State Mulliken Net Atomic Charges

     Atom                 Charge (a.u.)
  ----------------------------------------
      1 C                    -0.600810
      2 Cl                    0.099699
      3 H                     0.166588
      4 H                     0.169837
      5 H                     0.166585
      6 O                    -0.296200
      7 C                     0.092945
      8 H                     0.107723
      9 H                     0.093633
  ----------------------------------------
  Sum of atomic charges =    -0.000000

                    Cartesian Multipole Moments
 -----------------------------------------------------------------
    Charge (ESU x 10^10)
                -0.0000
    Dipole Moment (Debye)
         X       1.8735      Y      -3.5730      Z       0.0001
       Tot       4.0344
    Quadrupole Moments (Debye-Ang)
        XX     -23.3796     XY       5.7715     YY     -31.6738
        XZ      -0.0032     YZ       0.0002     ZZ     -31.8648

 Total job time:  46.01s(wall), 42.60s(cpu)
        *  Thank you very much for using Q-Chem.  Have a nice day.  *
