 Q-Chem 5.0, Q-Chem, Inc., Pleasanton, CA (2017)
 Q-Chem 5.0.2 for Intel X86 EM64T Linux

User input:
--------------------------------------------------------------
$rem
SCF_PRINT                     1
BASIS                         6-311++g**
SCF_SAVE_MATRICES             1
SCF_CONVERGENCE               5
SCF_FINAL_PRINT               1
METHOD                        hf
JOBTYPE                       sp
$end

$molecule
0 1
S    -3.112683203    6.289227834    1.226984439
H    -4.328789697    5.797771251    0.973373089
C    -2.689135032    6.70316383    -0.489062886
H    -1.684433029    7.115457372    -0.460265708
H    -2.683867206    5.816530502    -1.115183775
H    -3.365330613    7.451201412    -0.890098894
$end

--------------------------------------------------------------

             Standard Nuclear Orientation (Angstroms)
    I     Atom           X                Y                Z
 ----------------------------------------------------------------
    1      S       0.6601814370    -0.0862466930    -0.0001127410
    2      H       0.8933317165     1.2292008975     0.0012578754
    3      C      -1.1520965739     0.0195966352    -0.0004037717
    4      H      -1.5136364163    -1.0047544734     0.0149293899
    5      H      -1.5140274025     0.5299137805     0.8865890481
    6      H      -1.5159914458     0.5080070714    -0.8985498264
 ----------------------------------------------------------------

    7    -437.7413535382      7.46e-06  Convergence criterion met
 Total energy in the final basis set =     -437.7413535382

                    Orbital Energies (a.u.)
 --------------------------------------------------------------

 Alpha MOs
 -- Occupied --
-91.953 -11.259  -8.955  -6.638  -6.637  -6.635  -1.041  -0.870
 -0.611  -0.595  -0.530  -0.460  -0.357

          Ground-State Mulliken Net Atomic Charges

     Atom                 Charge (a.u.)
  ----------------------------------------
      1 S                     0.042647
      2 H                     0.006051
      3 C                    -0.478497
      4 H                     0.152518
      5 H                     0.138704
      6 H                     0.138577
  ----------------------------------------
  Sum of atomic charges =     0.000000

                    Cartesian Multipole Moments
 -----------------------------------------------------------------
    Charge (ESU x 10^10)
                 0.0000
    Dipole Moment (Debye)
         X      -1.4972      Y       0.9871      Z       0.0024
       Tot       1.7933
    Quadrupole Moments (Debye-Ang)
        XX     -20.5837     XY       1.4905     YY     -19.5659
        XZ      -0.0017     YZ      -0.0001     ZZ     -22.9370

 Total job time:  8.65s(wall), 8.04s(cpu)
        *  Thank you very much for using Q-Chem.  Have a nice day.  *
