 Q-Chem 5.0, Q-Chem, Inc., Pleasanton, CA (2017)
 Q-Chem 5.0.2 for Intel X86 EM64T Linux

User input:
--------------------------------------------------------------
$rem
SCF_PRINT                     1
BASIS                         6-311++g**
SCF_SAVE_MATRICES             1
SCF_CONVERGENCE               5
SCF_FINAL_PRINT               1
METHOD                        hf
JOBTYPE                       sp
$end

$molecule
0 1
N    1.578718    0.046611    0.0
H    2.158621    -0.136396    -0.809565
H    0.849471    -0.658193    0.0
H    2.158621    -0.136396    0.809565
$end

--------------------------------------------------------------

             Standard Nuclear Orientation (Angstroms)
    I     Atom           X                Y                Z
 ----------------------------------------------------------------
    1      N      -0.0004558817    -0.1154128008    -0.0000000000
    2      H       0.4708324761     0.2688609756     0.8095650000
    3      H      -0.9384737803     0.2701676543    -0.0000000000
    4      H       0.4708324761     0.2688609756    -0.8095650000
 ----------------------------------------------------------------

    7     -56.2142394249      8.48e-06  Convergence criterion met
 Total energy in the final basis set =      -56.2142394249

             Orbital Energies (a.u.) and Symmetries
 --------------------------------------------------------------

 Alpha MOs, Restricted
 -- Occupied --
-15.542  -1.144  -0.630  -0.629  -0.429
  1 A'    2 A'    3 A'    1 A"    4 A'

 Beta MOs, Restricted
 -- Occupied --
-15.542  -1.144  -0.630  -0.629  -0.429
  1 A'    2 A'    3 A'    1 A"    4 A'

          Ground-State Mulliken Net Atomic Charges

     Atom                 Charge (a.u.)
  ----------------------------------------
      1 N                    -0.675012
      2 H                     0.224800
      3 H                     0.225413
      4 H                     0.224800
  ----------------------------------------
  Sum of atomic charges =    -0.000000

                    Cartesian Multipole Moments
 -----------------------------------------------------------------
    Charge (ESU x 10^10)
                 0.0000
    Dipole Moment (Debye)
         X       0.0057      Y       1.8285      Z       0.0000
       Tot       1.8286
    Quadrupole Moments (Debye-Ang)
        XX      -6.1934     XY      -0.0004     YY      -9.3952
        XZ       0.0000     YZ       0.0000     ZZ      -6.2224

 Total job time:  2.05s(wall), 1.31s(cpu)
        *  Thank you very much for using Q-Chem.  Have a nice day.  *
