 Q-Chem 5.0, Q-Chem, Inc., Pleasanton, CA (2017)
 Q-Chem 5.0.2 for Intel X86 EM64T Linux

User input:
--------------------------------------------------------------
$rem
SCF_PRINT                     1
BASIS                         6-311++g**
SCF_SAVE_MATRICES             1
SCF_CONVERGENCE               5
SCF_FINAL_PRINT               1
METHOD                        hf
JOBTYPE                       sp
$end

$molecule
0 1
C    0.179810349    -0.077197552    -0.11802464
Cl    1.722679479    0.399031247    0.6280761
H    0.130360699    -1.159076002    -0.155096513
H    -0.630477191    0.314338739    0.48550704
H    0.134959164    0.335748179    -1.118887999
$end

--------------------------------------------------------------

             Standard Nuclear Orientation (Angstroms)
    I     Atom           X                Y                Z
 ----------------------------------------------------------------
    1      C      -1.1229773552     0.0000172218    -0.0001830089
    2      Cl      0.6557596474     0.0000032784    -0.0000797325
    3      H      -1.4710510970    -0.8719747070    -0.5412516909
    4      H      -1.4678950360    -0.0338465568     1.0264630310
    5      H      -1.4711037419     0.9056621998    -0.4827578339
 ----------------------------------------------------------------

    7    -499.1325265725      6.20e-06  Convergence criterion met
 Total energy in the final basis set =     -499.1325265725

                    Orbital Energies (a.u.)
 --------------------------------------------------------------

 Alpha MOs
 -- Occupied --
******* -11.292 -10.551  -8.019  -8.016  -8.016  -1.131  -0.918
 -0.621  -0.621  -0.549  -0.436  -0.436

          Ground-State Mulliken Net Atomic Charges

     Atom                 Charge (a.u.)
  ----------------------------------------
      1 C                    -0.524563
      2 Cl                    0.029070
      3 H                     0.165103
      4 H                     0.165295
      5 H                     0.165095
  ----------------------------------------
  Sum of atomic charges =     0.000000

                    Cartesian Multipole Moments
 -----------------------------------------------------------------
    Charge (ESU x 10^10)
                 0.0000
    Dipole Moment (Debye)
         X      -2.2465      Y      -0.0001      Z       0.0012
       Tot       2.2465
    Quadrupole Moments (Debye-Ang)
        XX     -18.3557     XY      -0.0001     YY     -20.1186
        XZ       0.0029     YZ      -0.0000     ZZ     -20.1223

 Total job time:  7.71s(wall), 6.86s(cpu)
        *  Thank you very much for using Q-Chem.  Have a nice day.  *
