 Q-Chem 5.0, Q-Chem, Inc., Pleasanton, CA (2017)
 Q-Chem 5.0.2 for Intel X86 EM64T Linux

User input:
--------------------------------------------------------------
$rem
SCF_PRINT                     1
BASIS                         6-311++g**
SCF_SAVE_MATRICES             1
SCF_CONVERGENCE               5
SCF_FINAL_PRINT               1
METHOD                        hf
JOBTYPE                       sp
$end

$molecule
0 1
C    -0.3380031    2.0800608    1.1300452
C    0.8540254    1.3593471    1.1306308
N    1.4701787    0.9907598    0.0
C    0.8540254    1.3593471    -1.1306308
C    -0.3380031    2.0800608    -1.1300452
N    -0.9523059    2.4528836    0.0
H    -0.8103758    2.3643033    2.0618643
H    1.3208583    1.067061    2.0623986
H    1.3208583    1.067061    -2.0623986
H    -0.8103758    2.3643033    -2.0618643
$end

--------------------------------------------------------------

             Standard Nuclear Orientation (Angstroms)
    I     Atom           X                Y                Z
 ----------------------------------------------------------------
    1      C       0.0002541674    -0.6963551979     1.1300452000
    2      C       0.0003446393     0.6966129187     1.1306308000
    3      N      -0.0029853735     1.4145895185    -0.0000000000
    4      C       0.0003446393     0.6966129187    -1.1306308000
    5      C       0.0002541674    -0.6963551979    -1.1300452000
    6      N      -0.0009978144    -1.4149393634     0.0000000000
    7      H       0.0013815720    -1.2476523006     2.0618643000
    8      H       0.0089667455     1.2473304326     2.0623986000
    9      H       0.0089667455     1.2473304326    -2.0623986000
   10      H       0.0013815720    -1.2476523006    -2.0618643000
 ----------------------------------------------------------------

    8    -262.7419911764      2.77e-06  Convergence criterion met
 Total energy in the final basis set =     -262.7419911764

             Orbital Energies (a.u.) and Symmetries
 --------------------------------------------------------------

 Alpha MOs, Restricted
 -- Occupied --
-15.599 -15.599 -11.290 -11.290 -11.289 -11.289  -1.312  -1.224
  1 A'    2 A'    1 A"    3 A'    4 A'    2 A"    5 A'    6 A'
 -1.059  -0.908  -0.892  -0.731  -0.708  -0.681  -0.615  -0.577
  3 A"    7 A'    4 A"    8 A'    5 A"    9 A'    6 A"   10 A'
 -0.554  -0.504  -0.438  -0.417  -0.363
  7 A"   11 A'   12 A'   13 A'    8 A"

 Beta MOs, Restricted
 -- Occupied --
-15.599 -15.599 -11.290 -11.290 -11.289 -11.289  -1.312  -1.224
  1 A'    2 A'    1 A"    3 A'    4 A'    2 A"    5 A'    6 A'
 -1.059  -0.908  -0.892  -0.731  -0.708  -0.681  -0.615  -0.577
  3 A"    7 A'    4 A"    8 A'    5 A"    9 A'    6 A"   10 A'
 -0.554  -0.504  -0.438  -0.417  -0.363
  7 A"   11 A'   12 A'   13 A'    8 A"

          Ground-State Mulliken Net Atomic Charges

     Atom                 Charge (a.u.)
  ----------------------------------------
      1 C                    -0.147643
      2 C                    -0.148520
      3 N                    -0.116643
      4 C                    -0.148520
      5 C                    -0.147643
      6 N                    -0.116947
      7 H                     0.206493
      8 H                     0.206464
      9 H                     0.206464
     10 H                     0.206493
  ----------------------------------------
  Sum of atomic charges =     0.000000

                    Cartesian Multipole Moments
 -----------------------------------------------------------------
    Charge (ESU x 10^10)
                -0.0000
    Dipole Moment (Debye)
         X       0.0185      Y       0.0009      Z      -0.0000
       Tot       0.0185
    Quadrupole Moments (Debye-Ang)
        XX     -37.0710     XY       0.0229     YY     -42.2632
        XZ      -0.0000     YZ      -0.0000     ZZ     -26.4936

 Total job time:  46.48s(wall), 45.45s(cpu)
        *  Thank you very much for using Q-Chem.  Have a nice day.  *
