 Q-Chem 5.0, Q-Chem, Inc., Pleasanton, CA (2017)
 Q-Chem 5.0.2 for Intel X86 EM64T Linux

User input:
--------------------------------------------------------------
$rem
SCF_PRINT                     1
BASIS                         6-311++g**
SCF_SAVE_MATRICES             1
SCF_CONVERGENCE               5
SCF_FINAL_PRINT               1
METHOD                        hf
JOBTYPE                       sp
$end

$molecule
0 1
H    0.855171335    -8.119e-06    -0.588786261
O    0.27154607    1.6357e-05    0.175592508
C    1.084050448    1.807e-06    1.33525199
H    0.417831608    -2.486e-06    2.192984764
H    1.718489566    -0.886312946    1.398035525
H    1.718498554    0.886309236    1.398050411
F    1.125857154    4.199e-06    -2.561576197
C    -0.184637333    -1.453e-06    -3.025415783
H    -0.166928581    -1.809e-06    -4.110978064
H    -0.686098066    -0.888580071    -2.654737004
H    -0.686105119    0.888573338    -2.654737429
$end

--------------------------------------------------------------

             Standard Nuclear Orientation (Angstroms)
    I     Atom           X                Y                Z
 ----------------------------------------------------------------
    1      H       0.4699553051    -0.2076033805     0.0000122237
    2      O       1.1387256650     0.4835113410    -0.0000096227
    3      C       2.4066087552    -0.1469218021     0.0000047285
    4      H       3.1553685903     0.6397876512     0.0000120002
    5      H       2.5633252478    -0.7649002066     0.8863180143
    6      H       2.5633433845    -0.7649021384    -0.8863041677
    7      F      -1.4403865758    -0.7695329508    -0.0000038333
    8      C      -2.0945173524     0.4571112067     0.0000043292
    9      H      -3.1652930998     0.2776721797     0.0000029515
   10      H      -1.8027872963     1.0082518190     0.8885847612
   11      H      -1.8027866867     1.0082634770    -0.8885686478
 ----------------------------------------------------------------

    7    -254.1669183455      6.65e-06  Convergence criterion met
 Total energy in the final basis set =     -254.1669183455

                    Orbital Energies (a.u.)
 --------------------------------------------------------------

 Alpha MOs
 -- Occupied --
-26.293 -20.545 -11.312 -11.264  -1.602  -1.349  -0.965  -0.919
 -0.719  -0.707  -0.688  -0.673  -0.612  -0.585  -0.544  -0.541
 -0.494  -0.441

          Ground-State Mulliken Net Atomic Charges

     Atom                 Charge (a.u.)
  ----------------------------------------
      1 H                     0.335533
      2 O                    -0.423116
      3 C                    -0.247379
      4 H                     0.124375
      5 H                     0.111099
      6 H                     0.111102
      7 F                    -0.244593
      8 C                    -0.208776
      9 H                     0.135160
     10 H                     0.153297
     11 H                     0.153298
  ----------------------------------------
  Sum of atomic charges =     0.000000

                    Cartesian Multipole Moments
 -----------------------------------------------------------------
    Charge (ESU x 10^10)
                 0.0000
    Dipole Moment (Debye)
         X      -0.9685      Y       0.0734      Z       0.0001
       Tot       0.9713
    Quadrupole Moments (Debye-Ang)
        XX     -18.2479     XY      -4.8801     YY     -27.1143
        XZ       0.0000     YZ      -0.0000     ZZ     -25.4533

 Total job time:  36.03s(wall), 35.15s(cpu)
        *  Thank you very much for using Q-Chem.  Have a nice day.  *
