 Q-Chem 5.0, Q-Chem, Inc., Pleasanton, CA (2017)
 Q-Chem 5.0.2 for Intel X86 EM64T Linux

User input:
--------------------------------------------------------------
$rem
SCF_PRINT                     1
BASIS                         6-311++g**
SCF_SAVE_MATRICES             1
SCF_CONVERGENCE               5
SCF_FINAL_PRINT               1
METHOD                        hf
JOBTYPE                       sp
$end

$molecule
0 1
O    -0.304026274    -0.000209906    3.240541651
H    -1.061671708    3.4129e-05    3.830196635
C    0.877605168    -2.964e-05    4.033497508
H    1.715615561    -0.000131053    3.343283509
H    0.946841112    0.888893429    4.660263367
H    0.946888093    -0.888723395    4.66058358
$end

--------------------------------------------------------------

             Standard Nuclear Orientation (Angstroms)
    I     Atom           X                Y                Z
 ----------------------------------------------------------------
    1      O       0.7488247919    -0.1222599638     0.0000001733
    2      H       1.1394360650     0.7547477309    -0.0000053432
    3      C      -0.6670146450     0.0206756069    -0.0000005443
    4      H      -1.0811544550    -0.9828905226     0.0001867206
    5      H      -1.0233841967     0.5412447121     0.8887186633
    6      H      -1.0234078784     0.5409241490    -0.8888981611
 ----------------------------------------------------------------

    7    -115.0796452162      9.42e-06  Convergence criterion met
 Total energy in the final basis set =     -115.0796452162

                    Orbital Energies (a.u.)
 --------------------------------------------------------------

 Alpha MOs
 -- Occupied --
-20.558 -11.273  -1.358  -0.929  -0.692  -0.622  -0.594  -0.505
 -0.453

          Ground-State Mulliken Net Atomic Charges

     Atom                 Charge (a.u.)
  ----------------------------------------
      1 O                    -0.387744
      2 H                     0.256681
      3 C                    -0.211858
      4 H                     0.133042
      5 H                     0.104936
      6 H                     0.104943
  ----------------------------------------
  Sum of atomic charges =     0.000000

                    Cartesian Multipole Moments
 -----------------------------------------------------------------
    Charge (ESU x 10^10)
                 0.0000
    Dipole Moment (Debye)
         X      -1.0911      Y       1.7043      Z       0.0000
       Tot       2.0236
    Quadrupole Moments (Debye-Ang)
        XX     -13.0130     XY       2.4405     YY     -12.1556
        XZ      -0.0000     YZ      -0.0000     ZZ     -13.7448

 Total job time:  4.97s(wall), 4.87s(cpu)
        *  Thank you very much for using Q-Chem.  Have a nice day.  *
