 Q-Chem 5.0, Q-Chem, Inc., Pleasanton, CA (2017)
 Q-Chem 5.0.2 for Intel X86 EM64T Linux

User input:
--------------------------------------------------------------
$rem
SCF_PRINT                     1
BASIS                         6-311++g**
SCF_SAVE_MATRICES             1
SCF_CONVERGENCE               5
SCF_FINAL_PRINT               1
METHOD                        hf
JOBTYPE                       sp
$end

$molecule
0 1
N    -4.443847216    0.003241324    3.917575142
C    -5.269667216    -1.075483676    3.409420142
C    -4.151048216    -0.203416676    5.323037142
C    -5.102631216    1.280426324    3.720892142
H    -5.062163216    -0.220699676    5.941925142
H    -3.629556216    -1.150340676    5.453179142
H    -3.505905216    0.595924324    5.684173142
H    -6.064049216    1.341711324    4.255123142
H    -4.459570216    2.083221324    4.077923142
H    -5.289110216    1.436927324    2.659644142
H    -6.239899216    -1.138941676    3.927201142
H    -5.456675216    -0.924671676    2.347429142
H    -4.750743216    -2.024428676    3.534754142
$end

--------------------------------------------------------------

             Standard Nuclear Orientation (Angstroms)
    I     Atom           X                Y                Z
 ----------------------------------------------------------------
    1      N      -0.0000216633     0.0000501728     0.3962358766
    2      C       1.0864165381     0.8433348558    -0.0646011663
    3      C       0.1872934381    -1.3624115016    -0.0646040687
    4      C      -1.2736765142     0.5190070201    -0.0645994486
    5      H       0.1972584238    -1.4344998774    -1.1637653703
    6      H       1.1317740825    -1.7504058377     0.3135131294
    7      H      -0.6175929800    -1.9908306465     0.3133138688
    8      H      -1.3410708819     0.5463453018    -1.1637781424
    9      H      -2.0819587676    -0.1047762716     0.3136235021
   10      H      -1.4156115665     1.5302555660     0.3132167994
   11      H       1.1439860547     0.8877942567    -1.1637750961
   12      H       0.9501806075     1.8554223669     0.3131021256
   13      H       2.0329858989     0.4607616860     0.3137261485
 ----------------------------------------------------------------

    7    -173.3175876890      4.99e-06  Convergence criterion met
 Total energy in the final basis set =     -173.3175876890

                    Orbital Energies (a.u.)
 --------------------------------------------------------------

 Alpha MOs
 -- Occupied --
-15.545 -11.239 -11.239 -11.239  -1.229  -0.951  -0.951  -0.807
 -0.645  -0.630  -0.630  -0.545  -0.545  -0.517  -0.500  -0.500
 -0.356

          Ground-State Mulliken Net Atomic Charges

     Atom                 Charge (a.u.)
  ----------------------------------------
      1 N                    -0.071801
      2 C                    -0.327721
      3 C                    -0.327718
      4 C                    -0.327723
      5 H                     0.110454
      6 H                     0.120589
      7 H                     0.120582
      8 H                     0.110443
      9 H                     0.120622
     10 H                     0.120611
     11 H                     0.110445
     12 H                     0.120598
     13 H                     0.120617
  ----------------------------------------
  Sum of atomic charges =     0.000000

                    Cartesian Multipole Moments
 -----------------------------------------------------------------
    Charge (ESU x 10^10)
                 0.0000
    Dipole Moment (Debye)
         X      -0.0001      Y       0.0002      Z      -0.8291
       Tot       0.8291
    Quadrupole Moments (Debye-Ang)
        XX     -26.4462     XY      -0.0000     YY     -26.4481
        XZ       0.0002     YZ      -0.0004     ZZ     -30.1161

 Total job time:  79.57s(wall), 71.30s(cpu)
        *  Thank you very much for using Q-Chem.  Have a nice day.  *
