 Q-Chem 5.0, Q-Chem, Inc., Pleasanton, CA (2017)
 Q-Chem 5.0.2 for Intel X86 EM64T Linux

User input:
--------------------------------------------------------------
$rem
SCF_PRINT                     1
BASIS                         6-311++g**
SCF_SAVE_MATRICES             1
SCF_CONVERGENCE               5
SCF_FINAL_PRINT               1
METHOD                        hf
JOBTYPE                       sp
$end

$molecule
0 1
O    -1.551007    -0.11452    0.0
H    -1.934259    0.762503    0.0
H    -0.599677    0.040712    0.0
O    1.350625    0.111469    0.0
H    1.680398    -0.373741    -0.758561
H    1.680398    -0.373741    0.758561
$end

--------------------------------------------------------------

             Standard Nuclear Orientation (Angstroms)
    I     Atom           X                Y                Z
 ----------------------------------------------------------------
    1      O      -1.5118385057     0.1206678164     0.0000000000
    2      H      -1.8977462082    -0.7551898679     0.0000000000
    3      H      -0.5609832405    -0.0374460901     0.0000000000
    4      O       1.3890954058    -0.1141123632    -0.0000000000
    5      H       1.7203371237     0.3700961662     0.7585610000
    6      H       1.7203371237     0.3700961662    -0.7585610000
 ----------------------------------------------------------------

    8    -152.1127614041      3.72e-06  Convergence criterion met
 Total energy in the final basis set =     -152.1127614041

             Orbital Energies (a.u.) and Symmetries
 --------------------------------------------------------------

 Alpha MOs, Restricted
 -- Occupied --
-20.593 -20.535  -1.383  -1.325  -0.746  -0.697  -0.616  -0.560
  1 A'    2 A'    3 A'    4 A'    1 A"    5 A'    6 A'    7 A'
 -0.532  -0.481
  8 A'    2 A"

 Beta MOs, Restricted
 -- Occupied --
-20.593 -20.535  -1.383  -1.325  -0.746  -0.697  -0.616  -0.560
  1 A'    2 A'    3 A'    4 A'    1 A"    5 A'    6 A'    7 A'
 -0.532  -0.481
  8 A'    2 A"

          Ground-State Mulliken Net Atomic Charges

     Atom                 Charge (a.u.)
  ----------------------------------------
      1 O                    -0.589400
      2 H                     0.252565
      3 H                     0.339692
      4 O                    -0.551056
      5 H                     0.274100
      6 H                     0.274100
  ----------------------------------------
  Sum of atomic charges =    -0.000000

                    Cartesian Multipole Moments
 -----------------------------------------------------------------
    Charge (ESU x 10^10)
                -0.0000
    Dipole Moment (Debye)
         X       2.7826      Y      -0.1406      Z      -0.0000
       Tot       2.7862
    Quadrupole Moments (Debye-Ang)
        XX     -11.6496     XY       7.0692     YY     -12.6722
        XZ      -0.0000     YZ      -0.0000     ZZ     -11.7706

 Total job time:  4.37s(wall), 4.22s(cpu)
        *  Thank you very much for using Q-Chem.  Have a nice day.  *
