 Q-Chem 5.0, Q-Chem, Inc., Pleasanton, CA (2017)
 Q-Chem 5.0.2 for Intel X86 EM64T Linux

User input:
--------------------------------------------------------------
$rem
SCF_PRINT                     1
BASIS                         6-311++g**
SCF_SAVE_MATRICES             1
SCF_CONVERGENCE               5
SCF_FINAL_PRINT               1
METHOD                        hf
JOBTYPE                       sp
$end

$molecule
0 1
C    -0.189833176    -0.645396435    0.069807761
C    1.121636324    -0.354065576    0.439096514
C    1.486520953    0.962572632    0.712107225
C    0.54932939    1.989209324    0.617868956
C    -0.757627135    1.68186263    0.246856908
C    -1.13819046    0.370551816    -0.028582325
Br    -2.038462778    3.070459841    0.115165429
H    1.852935245    -1.146434699    0.514119204
H    0.825048723    3.012176989    0.829385472
H    2.502259769    1.196433556    1.000317333
H    -2.157140187    0.151608161    -0.313181471
H    -0.480820487    -1.664983631    -0.142918416
S    -4.157443472    5.729584377    -0.878761129
H    -4.823791426    4.796089466    -1.563433338
C    -2.82833852    5.970593053    -2.091189515
H    -2.167577293    6.722356639    -1.668621815
H    -2.264954814    5.054835899    -2.240198499
H    -3.218524904    6.337447714    -3.035087058
$end

--------------------------------------------------------------

             Standard Nuclear Orientation (Angstroms)
    I     Atom           X                Y                Z
 ----------------------------------------------------------------
    1      C       3.4999660376    -1.0281793480    -0.5750826239
    2      C       4.1448224225     0.1847593683    -0.3424025534
    3      C       3.4134129329     1.2805222114     0.1109800243
    4      C       2.0422106526     1.1715705443     0.3326230147
    5      C       1.4119717033    -0.0476368407     0.0947585418
    6      C       2.1293521294    -1.1524955924    -0.3578822973
    7      Br     -0.4515449688    -0.2054228405     0.3922379449
    8      H       5.2084169265     0.2751289495    -0.5123302226
    9      H       1.4691459953     2.0167901211     0.6853608726
   10      H       3.9070348630     2.2249927019     0.2948120760
   11      H       1.6231636746    -2.0903496009    -0.5350676556
   12      H       4.0610193796    -1.8833696266    -0.9262988346
   13      S      -3.9882325712    -0.2421053685     0.1937242744
   14      H      -3.8248791038    -1.3393742504    -0.5502683493
   15      C      -3.6522373715     0.9582021958    -1.1257289165
   16      H      -3.7386380040     1.9401835209    -0.6690397911
   17      H      -2.6450759388     0.8408930322    -1.5131310991
   18      H      -4.3813837837     0.8781352347    -1.9255445950
 ----------------------------------------------------------------

    8   -3240.2796107552      4.15e-06  Convergence criterion met
 Total energy in the final basis set =    -3240.2796107552

                    Orbital Energies (a.u.)
 --------------------------------------------------------------

 Alpha MOs
 -- Occupied --
******* -91.949 -65.156 -58.516 -58.515 -58.515 -11.300 -11.254
-11.254 -11.254 -11.252 -11.252 -11.248  -9.836  -8.952  -7.450
 -7.441  -7.441  -6.635  -6.634  -6.632  -3.190  -3.186  -3.185
 -3.176  -3.176  -1.177  -1.073  -1.038  -1.034  -0.974  -0.866
 -0.847  -0.819  -0.712  -0.646  -0.645  -0.606  -0.606  -0.593
 -0.574  -0.532  -0.526  -0.516  -0.493  -0.457  -0.437  -0.414
 -0.354  -0.352  -0.333

          Ground-State Mulliken Net Atomic Charges

     Atom                 Charge (a.u.)
  ----------------------------------------
      1 C                    -0.241118
      2 C                    -0.314656
      3 C                    -0.226715
      4 C                    -0.181602
      5 C                     0.588268
      6 C                    -0.177892
      7 Br                   -0.601946
      8 H                     0.206288
      9 H                     0.264395
     10 H                     0.204985
     11 H                     0.264528
     12 H                     0.204456
     13 S                     0.106214
     14 H                     0.004188
     15 C                    -0.552944
     16 H                     0.154138
     17 H                     0.155657
     18 H                     0.143757
  ----------------------------------------
  Sum of atomic charges =     0.000000

                    Cartesian Multipole Moments
 -----------------------------------------------------------------
    Charge (ESU x 10^10)
                 0.0000
    Dipole Moment (Debye)
         X       2.1646      Y       0.5016      Z      -1.9147
       Tot       2.9331
    Quadrupole Moments (Debye-Ang)
        XX     -71.2396     XY      -0.8397     YY     -67.8146
        XZ       4.4970     YZ       2.8019     ZZ     -78.2551

 Total job time:  348.21s(wall), 347.87s(cpu)
        *  Thank you very much for using Q-Chem.  Have a nice day.  *
