 Q-Chem 5.0, Q-Chem, Inc., Pleasanton, CA (2017)
 Q-Chem 5.0.2 for Intel X86 EM64T Linux

User input:
--------------------------------------------------------------
$rem
SCF_PRINT                     1
BASIS                         6-311++g**
SCF_SAVE_MATRICES             1
SCF_CONVERGENCE               5
SCF_FINAL_PRINT               1
METHOD                        hf
JOBTYPE                       sp
$end

$molecule
0 1
C    1.037288    0.000539    -0.582102
C    -0.176487    -0.000271    0.102715
C    -0.183174    -0.000518    1.498133
C    1.01988    4e-05    2.205172
C    2.228616    0.000848    1.511505
C    2.241753    0.001096    0.118273
I    -2.004073    -0.001696    2.534377
H    1.013157    -0.000135    3.286244
H    3.159115    0.001279    2.063225
H    3.181398    0.001715    -0.416415
H    1.038283    0.000729    -1.663869
H    -1.109304    -0.000688    -0.443732
$end

--------------------------------------------------------------

             Standard Nuclear Orientation (Angstroms)
    I     Atom           X                Y                Z
 ----------------------------------------------------------------
    1      C       2.6368464850     1.2043974045     0.0000040495
    2      C       1.2432186795     1.2095228050    -0.0000101760
    3      C       0.5472496461     0.0000339558    -0.0000154983
    4      C       1.2431640782    -1.2094892928    -0.0000099457
    5      C       2.6367894539    -1.2044306854     0.0000035897
    6      C       3.3372831898    -0.0000318420     0.0000066765
    7      I      -1.5478580318     0.0000007954     0.0000018334
    8      H       0.7026355658    -2.1457535854     0.0000031521
    9      H       3.1726377257    -2.1441594562     0.0000081299
   10      H       4.4184049988    -0.0000570442     0.0000088535
   11      H       3.1727403832     2.1440987391     0.0000090375
   12      H       0.7027478158     2.1458151197     0.0000014797
 ----------------------------------------------------------------

    8   -7146.9809038527      4.79e-06  Convergence criterion met
 Total energy in the final basis set =    -7146.9809038527

                    Orbital Energies (a.u.)
 --------------------------------------------------------------

 Alpha MOs
 -- Occupied --
*******-180.862-169.669-169.668-169.668 -37.916 -33.104 -33.100
-33.100 -24.288 -24.287 -24.287 -24.283 -24.283 -11.296 -11.257
-11.257 -11.253 -11.253 -11.251  -7.233  -5.466  -5.456  -5.456
 -2.390  -2.385  -2.385  -2.373  -2.373  -1.173  -1.041  -1.035
 -0.875  -0.847  -0.798  -0.709  -0.645  -0.643  -0.607  -0.565
 -0.528  -0.516  -0.467  -0.406  -0.373  -0.353  -0.327

          Ground-State Mulliken Net Atomic Charges

     Atom                 Charge (a.u.)
  ----------------------------------------
      1 C                    -0.053866
      2 C                    -0.692671
      3 C                     0.931328
      4 C                    -0.692615
      5 C                    -0.053891
      6 C                    -0.391347
      7 I                    -0.023876
      8 H                     0.179397
      9 H                     0.209977
     10 H                     0.198193
     11 H                     0.209977
     12 H                     0.179393
  ----------------------------------------
  Sum of atomic charges =    -0.000000

                    Cartesian Multipole Moments
 -----------------------------------------------------------------
    Charge (ESU x 10^10)
                -0.0000
    Dipole Moment (Debye)
         X       1.9946      Y      -0.0000      Z       0.0000
       Tot       1.9946
    Quadrupole Moments (Debye-Ang)
        XX     -57.0543     XY       0.0002     YY     -59.0847
        XZ       0.0000     YZ      -0.0000     ZZ     -69.4648

 Total job time:  275.33s(wall), 266.99s(cpu)
        *  Thank you very much for using Q-Chem.  Have a nice day.  *
