 Q-Chem 5.0, Q-Chem, Inc., Pleasanton, CA (2017)
 Q-Chem 5.0.2 for Intel X86 EM64T Linux

User input:
--------------------------------------------------------------
$rem
SCF_PRINT                     1
BASIS                         6-311++g**
SCF_SAVE_MATRICES             1
SCF_CONVERGENCE               5
SCF_FINAL_PRINT               1
METHOD                        hf
JOBTYPE                       sp
$end

$molecule
0 1
C    -0.032603    -0.245329    -0.035933
I    -2.421008954    -2.638344596    -1.211091634
I    -4.195887954    -4.415349596    -2.083913634
H    -0.980553    0.254481    -0.212468
H    -0.160128    -1.020226    0.714308
H    0.692193    0.480189    0.320357
H    0.328323    -0.68552    -0.960895
$end

--------------------------------------------------------------

             Standard Nuclear Orientation (Angstroms)
    I     Atom           X                Y                Z
 ----------------------------------------------------------------
    1      C      -4.4855291985     0.0003069602     0.0004269857
    2      I      -0.9061432337    -0.0001355308    -0.0001883873
    3      I       1.7527588602     0.0000777603     0.0001080818
    4      H      -4.1289726757     0.4124230004     0.9399011261
    5      H      -4.1287556742     0.6079238381    -0.8260740284
    6      H      -5.5711848054     0.0000862830     0.0002584457
    7      H      -4.1285398544    -1.0192130474    -0.1123912654
 ----------------------------------------------------------------

    7  -13873.8536802166      2.69e-06  Convergence criterion met
 Total energy in the final basis set =   -13873.8536802166

                    Orbital Energies (a.u.)
 --------------------------------------------------------------

 Alpha MOs
 -- Occupied --
***************-180.895-180.894-169.702-169.701-169.701-169.701
*******-169.700 -37.949 -37.948 -33.138 -33.137 -33.132 -33.132
-33.131 -33.131 -24.322 -24.321 -24.320 -24.320 -24.319 -24.319
-24.315 -24.315 -24.314 -24.314 -11.216  -7.266  -7.265  -5.501
 -5.500  -5.487  -5.487  -5.486  -5.486  -2.427  -2.421  -2.419
 -2.419  -2.417  -2.417  -2.402  -2.402  -2.401  -2.401  -0.956
 -0.922  -0.786  -0.558  -0.558  -0.558  -0.471  -0.443  -0.443
 -0.360  -0.360

          Ground-State Mulliken Net Atomic Charges

     Atom                 Charge (a.u.)
  ----------------------------------------
      1 C                    -0.511973
      2 I                     0.052260
      3 I                    -0.048374
      4 H                     0.126051
      5 H                     0.126003
      6 H                     0.130056
      7 H                     0.125978
  ----------------------------------------
  Sum of atomic charges =     0.000000

                    Cartesian Multipole Moments
 -----------------------------------------------------------------
    Charge (ESU x 10^10)
                 0.0000
    Dipole Moment (Debye)
         X      -0.3251      Y       0.0000      Z       0.0001
       Tot       0.3251
    Quadrupole Moments (Debye-Ang)
        XX     -58.9710     XY       0.0003     YY     -67.0188
        XZ       0.0005     YZ       0.0000     ZZ     -67.0188

 Total job time:  84.98s(wall), 83.18s(cpu)
        *  Thank you very much for using Q-Chem.  Have a nice day.  *
