 Q-Chem 5.0, Q-Chem, Inc., Pleasanton, CA (2017)
 Q-Chem 5.0.2 for Intel X86 EM64T Linux

User input:
--------------------------------------------------------------
$rem
SCF_PRINT                     1
BASIS                         6-311++g**
SCF_SAVE_MATRICES             1
SCF_CONVERGENCE               5
SCF_FINAL_PRINT               1
METHOD                        hf
JOBTYPE                       sp
$end

$molecule
0 1
H    1.101371146    -0.000117739    -0.587770996
O    0.397090227    -2.7546e-05    0.067866526
C    1.005829292    1.3334e-05    1.347930653
H    0.205003605    -4.3e-07    2.081297025
H    1.620180682    -0.886685805    1.514496095
H    1.620127834    0.886756142    1.514470494
$end

--------------------------------------------------------------

             Standard Nuclear Orientation (Angstroms)
    I     Atom           X                Y                Z
 ----------------------------------------------------------------
    1      H       1.1279037095    -0.7614716718     0.0000018898
    2      O       0.7478324858     0.1225068609     0.0000008301
    3      C      -0.6624783453    -0.0194465814     0.0000001810
    4      H      -1.0832130211     0.9816180198    -0.0001165529
    5      H      -1.0262273459    -0.5418584187    -0.8866675002
    6      H      -1.0262531571    -0.5416633278     0.8867744369
 ----------------------------------------------------------------

    7    -115.0795669890      9.60e-06  Convergence criterion met
 Total energy in the final basis set =     -115.0795669890

                    Orbital Energies (a.u.)
 --------------------------------------------------------------

 Alpha MOs
 -- Occupied --
-20.559 -11.273  -1.360  -0.928  -0.693  -0.622  -0.595  -0.505
 -0.452

          Ground-State Mulliken Net Atomic Charges

     Atom                 Charge (a.u.)
  ----------------------------------------
      1 H                     0.256312
      2 O                    -0.381648
      3 C                    -0.215602
      4 H                     0.132348
      5 H                     0.104293
      6 H                     0.104297
  ----------------------------------------
  Sum of atomic charges =     0.000000

                    Cartesian Multipole Moments
 -----------------------------------------------------------------
    Charge (ESU x 10^10)
                 0.0000
    Dipole Moment (Debye)
         X      -1.0807      Y      -1.7056      Z      -0.0000
       Tot       2.0191
    Quadrupole Moments (Debye-Ang)
        XX     -13.0556     XY      -2.4269     YY     -12.1386
        XZ       0.0000     YZ      -0.0000     ZZ     -13.7681

 Total job time:  6.48s(wall), 5.76s(cpu)
        *  Thank you very much for using Q-Chem.  Have a nice day.  *
