 Q-Chem 5.0, Q-Chem, Inc., Pleasanton, CA (2017)
 Q-Chem 5.0.2 for Intel X86 EM64T Linux

User input:
--------------------------------------------------------------
$rem
SCF_PRINT                     1
BASIS                         6-311++g**
SCF_SAVE_MATRICES             1
SCF_CONVERGENCE               5
SCF_FINAL_PRINT               1
METHOD                        hf
JOBTYPE                       sp
$end

$molecule
0 1
Cl    1.5347557    -2.78e-07    -3.014973713
C    -0.250343184    1.1724e-05    -3.026056648
H    -0.580143384    1.8132e-05    -4.057685667
H    -0.592367277    -0.887056056    -2.508114642
H    -0.592357482    0.887077343    -2.508105102
$end

--------------------------------------------------------------

             Standard Nuclear Orientation (Angstroms)
    I     Atom           X                Y                Z
 ----------------------------------------------------------------
    1      Cl      0.6569228721    -0.0001959199     0.0000000299
    2      C      -1.1282096666     0.0014400431     0.0000002434
    3      H      -1.4634646717     1.0313092996     0.0000290257
    4      H      -1.4674821225    -0.5182835305    -0.8870821969
    5      H      -1.4674840318    -0.5183353887     0.8870512014
 ----------------------------------------------------------------

    7    -499.1325618702      6.22e-06  Convergence criterion met
 Total energy in the final basis set =     -499.1325618702

                    Orbital Energies (a.u.)
 --------------------------------------------------------------

 Alpha MOs
 -- Occupied --
******* -11.293 -10.550  -8.018  -8.015  -8.015  -1.130  -0.918
 -0.623  -0.621  -0.546  -0.436  -0.436

          Ground-State Mulliken Net Atomic Charges

     Atom                 Charge (a.u.)
  ----------------------------------------
      1 Cl                    0.024030
      2 C                    -0.520817
      3 H                     0.164951
      4 H                     0.165918
      5 H                     0.165918
  ----------------------------------------
  Sum of atomic charges =     0.000000

                    Cartesian Multipole Moments
 -----------------------------------------------------------------
    Charge (ESU x 10^10)
                 0.0000
    Dipole Moment (Debye)
         X      -2.2755      Y      -0.0026      Z      -0.0000
       Tot       2.2755
    Quadrupole Moments (Debye-Ang)
        XX     -18.3729     XY       0.0115     YY     -20.0869
        XZ      -0.0000     YZ      -0.0000     ZZ     -20.1335

 Total job time:  7.34s(wall), 7.05s(cpu)
        *  Thank you very much for using Q-Chem.  Have a nice day.  *
