 Q-Chem 5.0, Q-Chem, Inc., Pleasanton, CA (2017)
 Q-Chem 5.0.2 for Intel X86 EM64T Linux

User input:
--------------------------------------------------------------
$rem
SCF_PRINT                     1
BASIS                         6-311++g**
SCF_SAVE_MATRICES             1
SCF_CONVERGENCE               5
SCF_FINAL_PRINT               1
METHOD                        hf
JOBTYPE                       sp
$end

$molecule
0 1
C    0.0    0.0    1.0590353
C    0.0    -1.2060084    1.7576742
C    0.0    -1.2071767    3.1515905
C    0.0    0.0    3.8485751
C    0.0    1.2071767    3.1515905
C    0.0    1.2060084    1.7576742
H    0.0    0.0    -0.0215805
H    0.0    -2.1416387    1.2144217
H    0.0    -2.1435657    3.6929953
H    0.0    0.0    4.9301499
H    0.0    2.1435657    3.6929953
H    0.0    2.1416387    1.2144217
C    -1.3940633    0.0    -2.4541524
C    -0.6970468    1.2072378    -2.4546277
C    0.6970468    1.2072378    -2.4546277
C    1.3940633    0.0    -2.4541524
C    0.6970468    -1.2072378    -2.4546277
C    -0.6970468    -1.2072378    -2.4546277
H    -2.4753995    0.0    -2.4503221
H    -1.2382321    2.1435655    -2.4536764
H    1.2382321    2.1435655    -2.4536764
H    2.4753995    0.0    -2.4503221
H    1.2382321    -2.1435655    -2.4536764
H    -1.2382321    -2.1435655    -2.4536764
$end

--------------------------------------------------------------

             Standard Nuclear Orientation (Angstroms)
    I     Atom           X                Y                Z
 ----------------------------------------------------------------
    1      C       0.0000000000     0.0000000000     1.0589876952
    2      C       1.2060084000    -0.0000000000     1.7576265952
    3      C       1.2071767000    -0.0000000000     3.1515428952
    4      C       0.0000000000     0.0000000000     3.8485274952
    5      C      -1.2071767000     0.0000000000     3.1515428952
    6      C      -1.2060084000     0.0000000000     1.7576265952
    7      H       0.0000000000     0.0000000000    -0.0216281048
    8      H       2.1416387000    -0.0000000000     1.2143740952
    9      H       2.1435657000    -0.0000000000     3.6929476952
   10      H       0.0000000000     0.0000000000     4.9301022952
   11      H      -2.1435657000     0.0000000000     3.6929476952
   12      H      -2.1416387000     0.0000000000     1.2143740952
   13      C      -0.0000000000    -1.3940633000    -2.4542000048
   14      C      -1.2072378000    -0.6970468000    -2.4546753048
   15      C      -1.2072378000     0.6970468000    -2.4546753048
   16      C       0.0000000000     1.3940633000    -2.4542000048
   17      C       1.2072378000     0.6970468000    -2.4546753048
   18      C       1.2072378000    -0.6970468000    -2.4546753048
   19      H      -0.0000000000    -2.4753995000    -2.4503697048
   20      H      -2.1435655000    -1.2382321000    -2.4537240048
   21      H      -2.1435655000     1.2382321000    -2.4537240048
   22      H       0.0000000000     2.4753995000    -2.4503697048
   23      H       2.1435655000     1.2382321000    -2.4537240048
   24      H       2.1435655000    -1.2382321000    -2.4537240048
 ----------------------------------------------------------------

    7    -461.5109422264      3.41e-06  Convergence criterion met
 Total energy in the final basis set =     -461.5109422264

             Orbital Energies (a.u.) and Symmetries
 --------------------------------------------------------------

 Alpha MOs, Restricted
 -- Occupied --
-11.243 -11.243 -11.242 -11.241 -11.241 -11.241 -11.231 -11.230
  1 A1    1 B1    1 B2    1 A2    2 A1    2 B2    3 A1    2 B1
-11.229 -11.228 -11.228 -11.224  -1.158  -1.144  -1.022  -1.022
  4 A1    5 A1    3 B1    6 A1    7 A1    8 A1    4 B1    3 B2
 -1.009  -1.008  -0.830  -0.830  -0.818  -0.817  -0.716  -0.704
  5 B1    9 A1    2 A2   10 A1    6 B1   11 A1   12 A1   13 A1
 -0.649  -0.637  -0.626  -0.612  -0.595  -0.594  -0.584  -0.582
  4 B2   14 A1    7 B1    8 B1    9 B1    5 B2   15 A1   10 B1
 -0.511  -0.501  -0.501  -0.494  -0.488  -0.481  -0.345  -0.344
 16 A1    3 A2   17 A1    6 B2   11 B1   18 A1    7 B2   12 B1
 -0.330  -0.326
  4 A2    8 B2

 Beta MOs, Restricted
 -- Occupied --
-11.243 -11.243 -11.242 -11.241 -11.241 -11.241 -11.231 -11.230
  1 A1    1 B1    1 B2    1 A2    2 A1    2 B2    3 A1    2 B1
-11.229 -11.228 -11.228 -11.224  -1.158  -1.144  -1.022  -1.022
  4 A1    5 A1    3 B1    6 A1    7 A1    8 A1    4 B1    3 B2
 -1.009  -1.008  -0.830  -0.830  -0.818  -0.817  -0.716  -0.704
  5 B1    9 A1    2 A2   10 A1    6 B1   11 A1   12 A1   13 A1
 -0.649  -0.637  -0.626  -0.612  -0.595  -0.594  -0.584  -0.582
  4 B2   14 A1    7 B1    8 B1    9 B1    5 B2   15 A1   10 B1
 -0.511  -0.501  -0.501  -0.494  -0.488  -0.481  -0.345  -0.344
 16 A1    3 A2   17 A1    6 B2   11 B1   18 A1    7 B2   12 B1
 -0.330  -0.326
  4 A2    8 B2

          Ground-State Mulliken Net Atomic Charges

     Atom                 Charge (a.u.)
  ----------------------------------------
      1 C                     0.208027
      2 C                    -0.253470
      3 C                    -0.098621
      4 C                    -0.404938
      5 C                    -0.098621
      6 C                    -0.253470
      7 H                     0.024829
      8 H                     0.195576
      9 H                     0.204305
     10 H                     0.177854
     11 H                     0.204305
     12 H                     0.195576
     13 C                    -0.237009
     14 C                    -0.207956
     15 C                    -0.207956
     16 C                    -0.237009
     17 C                    -0.207956
     18 C                    -0.207956
     19 H                     0.204367
     20 H                     0.198939
     21 H                     0.198939
     22 H                     0.204367
     23 H                     0.198939
     24 H                     0.198939
  ----------------------------------------
  Sum of atomic charges =    -0.000000

                    Cartesian Multipole Moments
 -----------------------------------------------------------------
    Charge (ESU x 10^10)
                -0.0000
    Dipole Moment (Debye)
         X       0.0000      Y       0.0000      Z      -0.5140
       Tot       0.5140
    Quadrupole Moments (Debye-Ang)
        XX     -64.2100     XY       0.0000     YY     -72.9104
        XZ       0.0000     YZ      -0.0000     ZZ     -74.1954

 Total job time:  308.07s(wall), 305.98s(cpu)
        *  Thank you very much for using Q-Chem.  Have a nice day.  *
