 Q-Chem 5.0, Q-Chem, Inc., Pleasanton, CA (2017)
 Q-Chem 5.0.2 for Intel X86 EM64T Linux

User input:
--------------------------------------------------------------
$rem
SCF_PRINT                     1
BASIS                         6-311++g**
SCF_SAVE_MATRICES             1
SCF_CONVERGENCE               5
SCF_FINAL_PRINT               1
METHOD                        hf
JOBTYPE                       sp
$end

$molecule
0 1
C    -1.888896    -0.179692    0.0
O    -1.49328    1.073689    0.0
O    -1.170435    -1.16659    0.0
H    -2.979488    -0.258829    0.0
H    -0.498833    1.107195    0.0
C    1.888896    0.179692    0.0
O    1.49328    -1.073689    0.0
O    1.170435    1.16659    0.0
H    2.979488    0.258829    0.0
H    0.498833    -1.107195    0.0
$end

--------------------------------------------------------------

             Standard Nuclear Orientation (Angstroms)
    I     Atom           X                Y                Z
 ----------------------------------------------------------------
    1      C       1.8904905930    -0.1620574945    -0.0000000000
    2      O       1.4831955964     1.0875771466     0.0000000000
    3      O       1.1812703489    -1.1556170128    -0.0000000000
    4      H       2.9817735925    -0.2310139307    -0.0000000000
    5      H       0.4884792271     1.1118017695     0.0000000000
    6      C      -1.8904905930     0.1620574945     0.0000000000
    7      O      -1.4831955964    -1.0875771466    -0.0000000000
    8      O      -1.1812703489     1.1556170128     0.0000000000
    9      H      -2.9817735925     0.2310139307     0.0000000000
   10      H      -0.4884792271    -1.1118017695    -0.0000000000
 ----------------------------------------------------------------

    9    -377.6646875427      3.93e-06  Convergence criterion met
 Total energy in the final basis set =     -377.6646875427

             Orbital Energies (a.u.) and Symmetries
 --------------------------------------------------------------

 Alpha MOs, Restricted
 -- Occupied --
-20.620 -20.620 -20.581 -20.581 -11.415 -11.415  -1.493  -1.480
  1 Ag    1 Bu    2 Bu    2 Ag    3 Bu    3 Ag    4 Ag    4 Bu
 -1.394  -1.380  -0.925  -0.889  -0.775  -0.739  -0.730  -0.701
  5 Bu    5 Ag    6 Ag    6 Bu    7 Bu    7 Ag    8 Bu    8 Ag
 -0.649  -0.639  -0.625  -0.585  -0.511  -0.502  -0.499  -0.479
  1 Au    1 Bg    9 Ag    9 Bu    2 Bg   10 Ag    2 Au   10 Bu

 Beta MOs, Restricted
 -- Occupied --
-20.620 -20.620 -20.581 -20.581 -11.415 -11.415  -1.493  -1.480
  1 Ag    1 Bu    2 Bu    2 Ag    3 Bu    3 Ag    4 Ag    4 Bu
 -1.394  -1.380  -0.925  -0.889  -0.775  -0.739  -0.730  -0.701
  5 Bu    5 Ag    6 Ag    6 Bu    7 Bu    7 Ag    8 Bu    8 Ag
 -0.649  -0.639  -0.625  -0.585  -0.511  -0.502  -0.499  -0.479
  1 Au    1 Bg    9 Ag    9 Bu    2 Bg   10 Ag    2 Au   10 Bu

          Ground-State Mulliken Net Atomic Charges

     Atom                 Charge (a.u.)
  ----------------------------------------
      1 C                     0.287171
      2 O                    -0.395169
      3 O                    -0.503797
      4 H                     0.172188
      5 H                     0.439607
      6 C                     0.287171
      7 O                    -0.395169
      8 O                    -0.503797
      9 H                     0.172188
     10 H                     0.439607
  ----------------------------------------
  Sum of atomic charges =    -0.000000

                    Cartesian Multipole Moments
 -----------------------------------------------------------------
    Charge (ESU x 10^10)
                -0.0000
    Dipole Moment (Debye)
         X       0.0000      Y      -0.0000      Z      -0.0000
       Tot       0.0000
    Quadrupole Moments (Debye-Ang)
        XX     -24.5211     XY      -1.0551     YY     -43.9871
        XZ       0.0000     YZ       0.0000     ZZ     -33.8756

 Total job time:  43.06s(wall), 41.92s(cpu)
        *  Thank you very much for using Q-Chem.  Have a nice day.  *
