 Q-Chem 5.0, Q-Chem, Inc., Pleasanton, CA (2017)
 Q-Chem 5.0.2 for Intel X86 EM64T Linux

User input:
--------------------------------------------------------------
$rem
SCF_PRINT                     1
BASIS                         6-311++g**
SCF_SAVE_MATRICES             1
SCF_CONVERGENCE               5
SCF_FINAL_PRINT               1
METHOD                        hf
JOBTYPE                       sp
$end

$molecule
0 1
C    -0.08221802    -0.061558741    -0.10680848
I    1.901225752    0.399212623    0.532188762
F    -0.250022308    -1.377895721    -0.214057562
F    -0.977880861    0.400686285    0.761715653
F    -0.335197352    0.485382328    -1.293788995
$end

--------------------------------------------------------------

             Standard Nuclear Orientation (Angstroms)
    I     Atom           X                Y                Z
 ----------------------------------------------------------------
    1      C       1.1669268056     0.0004663347     0.0000999079
    2      I      -0.9672420416    -0.0000277129     0.0000031728
    3      F       1.6393727827    -0.5655295666    -1.1084338661
    4      F       1.6391964482     1.2426550362     0.0644829270
    5      F       1.6394604769    -0.6772731613     1.0438656495
 ----------------------------------------------------------------

    8   -7253.0806710745      4.52e-06  Convergence criterion met
 Total energy in the final basis set =    -7253.0806710745

                    Orbital Energies (a.u.)
 --------------------------------------------------------------

 Alpha MOs
 -- Occupied --
*******-180.902-169.708-169.707-169.707 -37.956 -33.144 -33.139
-33.139 -26.371 -26.370 -26.370 -24.328 -24.327 -24.327 -24.322
-24.322 -11.568  -7.273  -5.507  -5.494  -5.494  -2.431  -2.425
 -2.425  -2.411  -2.411  -1.767  -1.669  -1.668  -1.018  -0.913
 -0.856  -0.856  -0.779  -0.738  -0.738  -0.693  -0.693  -0.676
 -0.521  -0.410  -0.410

          Ground-State Mulliken Net Atomic Charges

     Atom                 Charge (a.u.)
  ----------------------------------------
      1 C                     0.242355
      2 I                     0.113501
      3 F                    -0.118943
      4 F                    -0.118100
      5 F                    -0.118814
  ----------------------------------------
  Sum of atomic charges =     0.000000

                    Cartesian Multipole Moments
 -----------------------------------------------------------------
    Charge (ESU x 10^10)
                 0.0000
    Dipole Moment (Debye)
         X      -1.3841      Y       0.0044      Z       0.0009
       Tot       1.3841
    Quadrupole Moments (Debye-Ang)
        XX     -47.7416     XY       0.0094     YY     -50.5695
        XZ       0.0020     YZ      -0.0001     ZZ     -50.5738

 Total job time:  63.97s(wall), 61.90s(cpu)
        *  Thank you very much for using Q-Chem.  Have a nice day.  *
