 Q-Chem 5.0, Q-Chem, Inc., Pleasanton, CA (2017)
 Q-Chem 5.0.2 for Intel X86 EM64T Linux

User input:
--------------------------------------------------------------
$rem
SCF_PRINT                     1
BASIS                         6-311++g**
SCF_SAVE_MATRICES             1
SCF_CONVERGENCE               5
SCF_FINAL_PRINT               1
METHOD                        hf
JOBTYPE                       sp
$end

$molecule
0 1
C    -2.0071056    0.7638459    -0.1083509
O    -1.3885044    1.9298523    -0.4431206
H    -0.5238121    1.9646519    -0.0064609
C    -1.4630807    -0.151912    0.794993
C    -2.1475789    -1.3295094    1.0883677
C    -3.3743208    -1.6031427    0.4895864
C    -3.9143727    -0.6838545    -0.4091028
C    -3.2370496    0.4929609    -0.7096126
H    -0.510651    0.0566569    1.2642563
H    -1.7151135    -2.0321452    1.7878417
H    -3.9024664    -2.5173865    0.7197947
H    -4.867073    -0.8822939    -0.8811319
H    -3.6431662    1.2134345    -1.405759
O    1.3531168    1.9382724    0.4723133
C    2.0369747    0.7865043    0.1495491
H    1.7842846    2.3487495    1.229711
C    1.5904026    0.069686    -0.9574153
C    2.2417367    -1.1069765    -1.312811
C    3.3315674    -1.5665603    -0.5748636
C    3.7696838    -0.8396901    0.5286439
C    3.1224836    0.3383498    0.8960491
H    0.7445512    0.4367983    -1.5218583
H    1.8921463    -1.6649726    -2.1701843
H    3.8330227    -2.4811537    -0.8566666
H    4.6137632    -1.1850101    1.1092635
H    3.4598854    0.9030376    1.7569489
$end

--------------------------------------------------------------

             Standard Nuclear Orientation (Angstroms)
    I     Atom           X                Y                Z
 ----------------------------------------------------------------
    1      C       2.0123544611     0.7845383140     0.1095392859
    2      O       1.3940208830     1.9460302423     0.4601233814
    3      H       0.5266729868     1.9840153990     0.0290314723
    4      C       1.4642967345    -0.1226260102    -0.8000163430
    5      C       2.1487918330    -1.2960356345    -1.1097233833
    6      C       3.3795140966    -1.5739605185    -0.5211739918
    7      C       3.9235656657    -0.6632239014     0.3837877929
    8      C       3.2462895139     0.5093407952     0.7005783451
    9      H       0.5087562967     0.0893205522    -1.2613757373
   10      H       1.7131942674    -1.9920352066    -1.8138729573
   11      H       3.9076426950    -2.4849328019    -0.7640423606
   12      H       4.8793780658    -0.8650698642     0.8480166067
   13      H       3.6554920054     1.2231705374     1.4017438971
   14      O      -1.3530528578     1.9596781345    -0.4387517627
   15      C      -2.0332298648     0.8035464414    -0.1239075793
   16      H      -1.7893735916     2.3773343292    -1.1892422141
   17      C      -1.5789473427     0.0759546727     0.9728434894
   18      C      -2.2263679717    -1.1053584884     1.3198630808
   19      C      -3.3199144449    -1.5589485120     0.5837063105
   20      C      -3.7657357983    -0.8213281127    -0.5095340737
   21      C      -3.1225231141     0.3614807973    -0.8685232259
   22      H      -0.7302774744     0.4385007684     1.5360057351
   23      H      -1.8708015053    -1.6716929652     2.1692745355
   24      H      -3.8182946140    -2.4772070758     0.8589695537
   25      H      -4.6127635132    -1.1619121057    -1.0886555201
   26      H      -3.4659324305     0.9345623605    -1.7214642057
 ----------------------------------------------------------------

    7    -611.2817514264      8.33e-06  Convergence criterion met
 Total energy in the final basis set =     -611.2817514264

                    Orbital Energies (a.u.)
 --------------------------------------------------------------

 Alpha MOs
 -- Occupied --
-20.616 -20.569 -11.319 -11.294 -11.255 -11.252 -11.250 -11.241
-11.241 -11.235 -11.234 -11.224 -11.221 -11.220  -1.431  -1.390
 -1.163  -1.140  -1.035  -1.021  -1.013  -0.997  -0.864  -0.841
 -0.836  -0.815  -0.752  -0.727  -0.702  -0.683  -0.665  -0.643
 -0.624  -0.615  -0.608  -0.603  -0.591  -0.582  -0.575  -0.554
 -0.530  -0.510  -0.508  -0.498  -0.484  -0.473  -0.354  -0.336
 -0.330  -0.305

          Ground-State Mulliken Net Atomic Charges

     Atom                 Charge (a.u.)
  ----------------------------------------
      1 C                    -0.410473
      2 O                    -0.329953
      3 H                     0.430098
      4 C                     0.306846
      5 C                    -0.070698
      6 C                    -0.502730
      7 C                    -0.120046
      8 C                    -0.253764
      9 H                     0.168662
     10 H                     0.212449
     11 H                     0.175736
     12 H                     0.203572
     13 H                     0.213107
     14 O                    -0.315190
     15 C                    -0.281420
     16 H                     0.293434
     17 C                     0.151998
     18 C                    -0.101983
     19 C                    -0.524523
     20 C                    -0.125309
     21 C                    -0.114063
     22 H                     0.204981
     23 H                     0.227926
     24 H                     0.180086
     25 H                     0.214808
     26 H                     0.166448
  ----------------------------------------
  Sum of atomic charges =    -0.000000

                    Cartesian Multipole Moments
 -----------------------------------------------------------------
    Charge (ESU x 10^10)
                -0.0000
    Dipole Moment (Debye)
         X      -3.0351      Y      -0.9269      Z      -1.7032
       Tot       3.6017
    Quadrupole Moments (Debye-Ang)
        XX     -77.8244     XY      -4.2496     YY     -81.9193
        XZ       8.0779     YZ      -5.4206     ZZ     -80.6022

 Total job time:  1023.30s(wall), 1017.23s(cpu)
        *  Thank you very much for using Q-Chem.  Have a nice day.  *
