 Q-Chem 5.0, Q-Chem, Inc., Pleasanton, CA (2017)
 Q-Chem 5.0.2 for Intel X86 EM64T Linux

User input:
--------------------------------------------------------------
$rem
SCF_PRINT                     1
BASIS                         6-311++g**
SCF_SAVE_MATRICES             1
SCF_CONVERGENCE               5
SCF_FINAL_PRINT               1
METHOD                        hf
JOBTYPE                       sp
$end

$molecule
0 1
C    -0.235164025    0.002086093    0.13275518
C    -0.238177601    0.001189285    1.52560369
C    0.955845752    -0.002137887    2.242723198
C    2.165456711    -0.004625136    1.552251769
C    2.182877035    -0.003791485    0.15897686
C    0.981045016    -0.000426079    -0.546038572
Cl    -1.748955125    0.004260493    2.378483547
H    0.930822557    -0.002763332    3.32293354
H    3.093652555    -0.007217456    2.107162249
H    3.124112655    -0.005745788    -0.372313104
H    0.985592531    0.000253534    -1.627466794
H    -1.172880264    0.004699747    -0.404018294
N    -4.403627858    0.003356033    3.894349635
C    -5.231717639    -1.074213794    3.388785172
C    -4.114028146    -0.203131337    5.300014813
C    -5.064999881    1.279020449    3.699967776
H    -5.027240949    -0.220059996    5.916981022
H    -3.593998232    -1.150520809    5.432395658
H    -3.470363412    0.596298264    5.663509601
H    -6.026502925    1.337441715    4.235674271
H    -4.424188201    2.08313245    4.058008348
H    -5.254102781    1.436696713    2.639380767
H    -6.201675997    -1.135411517    3.908711233
H    -5.421511216    -0.924313435    2.327182075
H    -4.715155972    -2.024330412    3.514793112
$end

--------------------------------------------------------------

             Standard Nuclear Orientation (Angstroms)
    I     Atom           X                Y                Z
 ----------------------------------------------------------------
    1      C       2.2857535760    -1.2131891069    -0.0009780745
    2      C       1.5949907413    -0.0036920874    -0.0017017812
    3      C       2.2788170881     1.2097097863    -0.0008976446
    4      C       3.6716221180     1.2070094672     0.0006865205
    5      C       4.3751213257     0.0042595302     0.0014535325
    6      C       3.6785257856    -1.2024766572     0.0006080719
    7      Cl     -0.1398967371    -0.0085822724    -0.0036339710
    8      H       1.7233785903     2.1365154026    -0.0014969311
    9      H       4.2044695475     2.1480477771     0.0013204938
   10      H       5.4559479317     0.0073637823     0.0026981339
   11      H       4.2167637648    -2.1404573007     0.0011835321
   12      H       1.7356681373    -2.1431621759    -0.0016410917
   13      N      -3.1968705595    -0.0021904614    -0.0007481785
   14      C      -3.6663583903    -0.8490188837     1.0785792249
   15      C      -3.6394245996     1.3633682303     0.2036900781
   16      C      -3.6766837275    -0.5001287559    -1.2752495480
   17      H      -4.7382037548     1.4486305677     0.2211888840
   18      H      -3.2520806348     1.7370084584     1.1501890185
   19      H      -3.2599100907     1.9960374273    -0.5970713485
   20      H      -4.7773502599    -0.5095029998    -1.3329375428
   21      H      -3.2969581217     0.1263808052    -2.0806829746
   22      H      -3.3172103583    -1.5159317912    -1.4314212644
   23      H      -4.7665018767    -0.8760856940     1.1405403692
   24      H      -3.3069784460    -1.8660332549     0.9301855614
   25      H      -3.2788794846    -0.4826282799     2.0278176395
 ----------------------------------------------------------------

    7    -862.9966174391      8.62e-06  Convergence criterion met
 Total energy in the final basis set =     -862.9966174391

                    Orbital Energies (a.u.)
 --------------------------------------------------------------

 Alpha MOs
 -- Occupied --
******* -15.541 -11.297 -11.247 -11.247 -11.245 -11.245 -11.243
-11.236 -11.236 -11.236 -10.553  -8.021  -8.018  -8.018  -1.227
 -1.185  -1.113  -1.028  -0.991  -0.948  -0.948  -0.842  -0.816
 -0.805  -0.708  -0.648  -0.643  -0.639  -0.628  -0.628  -0.600
 -0.583  -0.542  -0.542  -0.536  -0.514  -0.512  -0.506  -0.497
 -0.497  -0.460  -0.443  -0.354  -0.347  -0.329

          Ground-State Mulliken Net Atomic Charges

     Atom                 Charge (a.u.)
  ----------------------------------------
      1 C                    -0.321574
      2 C                     0.031881
      3 C                    -0.368523
      4 C                    -0.238045
      5 C                    -0.538158
      6 C                    -0.253710
      7 Cl                    0.567609
      8 H                     0.227487
      9 H                     0.220344
     10 H                     0.181411
     11 H                     0.219022
     12 H                     0.229448
     13 N                     0.048430
     14 C                    -0.354205
     15 C                    -0.361955
     16 C                    -0.355930
     17 H                     0.112393
     18 H                     0.124408
     19 H                     0.122554
     20 H                     0.113614
     21 H                     0.121678
     22 H                     0.117925
     23 H                     0.113553
     24 H                     0.117541
     25 H                     0.122804
  ----------------------------------------
  Sum of atomic charges =    -0.000000

                    Cartesian Multipole Moments
 -----------------------------------------------------------------
    Charge (ESU x 10^10)
                -0.0000
    Dipole Moment (Debye)
         X       0.5537      Y       0.0186      Z       0.0053
       Tot       0.5541
    Quadrupole Moments (Debye-Ang)
        XX     -64.0881     XY      -0.0078     YY     -69.2791
        XZ       0.0066     YZ      -0.0002     ZZ     -79.2894

 Total job time:  779.02s(wall), 744.66s(cpu)
        *  Thank you very much for using Q-Chem.  Have a nice day.  *
