 Q-Chem 5.0, Q-Chem, Inc., Pleasanton, CA (2017)
 Q-Chem 5.0.2 for Intel X86 EM64T Linux

User input:
--------------------------------------------------------------
$rem
SCF_PRINT                     1
BASIS                         6-311++g**
SCF_SAVE_MATRICES             1
SCF_CONVERGENCE               5
SCF_FINAL_PRINT               1
METHOD                        hf
JOBTYPE                       sp
$end

$molecule
0 1
H    -0.034768801    0.294585208    0.057187563
C    -0.017014316    0.26196041    1.141050258
C    1.201240991    0.285824105    1.82004202
C    1.223051195    0.249206224    3.21325633
C    0.027949888    0.188858607    3.92796426
C    -1.189662929    0.164642236    3.250361662
C    -1.212924754    0.201264985    1.856906008
H    2.130707182    0.33262652    1.263780775
H    2.169947323    0.266273588    3.740739601
H    0.045570678    0.158814598    5.011482817
H    -2.118962097    0.116212797    3.806470317
H    -2.160018595    0.18369422    1.329378876
I    0.003414377    -3.215655817    1.72846281
C    0.106167253    -5.333396952    1.850723289
F    0.135277584    -5.877100968    0.636074544
F    1.202218878    -5.716996848    2.501577262
F    -0.950096543    -5.821924316    2.496892131
$end

--------------------------------------------------------------

             Standard Nuclear Orientation (Angstroms)
    I     Atom           X                Y                Z
 ----------------------------------------------------------------
    1      H       2.7169521817    -2.3535492704     0.3720171874
    2      C       2.8381246624    -1.2881888093     0.2093449442
    3      C       2.9403197140    -0.4231041619     1.2988081175
    4      C       3.1013556830     0.9454256640     1.0889124289
    5      C       3.1603784803     1.4495530258    -0.2091970837
    6      C       3.0580220303     0.5859811474    -1.2982698331
    7      C       2.8969777705    -0.7830299464    -1.0897647510
    8      H       2.8942271669    -0.8155626127     2.3084497770
    9      H       3.1792838039     1.6177605615     1.9356917194
   10      H       3.2840585223     2.5142004918    -0.3718458416
   11      H       3.1024801028     0.9785423739    -2.3077837526
   12      H       2.8185480471    -1.4553718734    -1.9367508561
   13      I      -0.5209510208    -0.2336681909    -0.0001360332
   14      C      -2.6012130831     0.1939332002     0.0001733450
   15      F      -3.3120578205    -0.9119936086     0.2086408365
   16      F      -2.9045318441     1.0669016387     0.9583031763
   17      F      -2.9777366985     0.7134223839    -1.1661230665
 ----------------------------------------------------------------

    8   -7483.8359312624      4.69e-06  Convergence criterion met
 Total energy in the final basis set =    -7483.8359312624

                    Orbital Energies (a.u.)
 --------------------------------------------------------------

 Alpha MOs
 -- Occupied --
*******-180.886-169.693-169.692-169.692 -37.940 -33.129 -33.124
-33.124 -26.359 -26.359 -26.359 -24.313 -24.311 -24.311 -24.307
-24.307 -11.551 -11.251 -11.250 -11.250 -11.249 -11.249 -11.248
 -7.258  -5.492  -5.479  -5.479  -2.416  -2.410  -2.410  -2.395
 -2.395  -1.756  -1.657  -1.657  -1.166  -1.029  -1.029  -1.007
 -0.901  -0.845  -0.845  -0.837  -0.837  -0.766  -0.727  -0.727
 -0.722  -0.682  -0.682  -0.665  -0.655  -0.633  -0.601  -0.601
 -0.532  -0.507  -0.507  -0.493  -0.400  -0.398  -0.349  -0.347

          Ground-State Mulliken Net Atomic Charges

     Atom                 Charge (a.u.)
  ----------------------------------------
      1 H                     0.205807
      2 C                    -0.272258
      3 C                    -0.183596
      4 C                    -0.191259
      5 C                    -0.219077
      6 C                    -0.174587
      7 C                    -0.211984
      8 H                     0.207923
      9 H                     0.208160
     10 H                     0.205430
     11 H                     0.209182
     12 H                     0.206702
     13 I                     0.201392
     14 C                     0.194157
     15 F                    -0.128773
     16 F                    -0.128540
     17 F                    -0.128680
  ----------------------------------------
  Sum of atomic charges =    -0.000000

                    Cartesian Multipole Moments
 -----------------------------------------------------------------
    Charge (ESU x 10^10)
                -0.0000
    Dipole Moment (Debye)
         X       2.2768      Y      -0.1270      Z      -0.0002
       Tot       2.2804
    Quadrupole Moments (Debye-Ang)
        XX     -92.3674     XY       1.2219     YY     -82.1393
        XZ       0.0041     YZ      -0.0006     ZZ     -82.0648

 Total job time:  634.77s(wall), 594.52s(cpu)
        *  Thank you very much for using Q-Chem.  Have a nice day.  *
