 Q-Chem 5.0, Q-Chem, Inc., Pleasanton, CA (2017)
 Q-Chem 5.0.2 for Intel X86 EM64T Linux

User input:
--------------------------------------------------------------
$rem
SCF_PRINT                     1
BASIS                         6-311++g**
SCF_SAVE_MATRICES             1
SCF_CONVERGENCE               5
SCF_FINAL_PRINT               1
METHOD                        hf
JOBTYPE                       sp
$end

$molecule
0 1
O    -1.3976213    -1.8858368    -0.3673061
N    -1.464255    0.3641828    0.0192301
C    -4.1857398    0.3696669    0.036096
C    -3.4832598    1.5783111    0.2500752
C    -2.1179502    1.5307048    0.2338383
C    -2.0773833    -0.8637492    -0.1899414
C    -3.5156032    -0.805195    -0.1757585
H    -5.2678045    0.3707428    0.0411419
H    -3.9920334    2.512756    0.4214414
H    -1.4929196    2.3984096    0.3885018
H    -4.0401226    -1.7348452    -0.3379269
H    -0.4265266    0.3612127    0.0073538
N    1.4327616    0.3639703    -0.0159508
C    2.11542    -0.780345    0.1681099
C    3.5237586    -0.8016096    0.1545027
C    4.2185897    0.3735783    -0.0525929
C    3.5099708    1.5615014    -0.2449763
C    2.1280138    1.4953324    -0.2175374
H    4.0459206    -1.7361356    0.3076883
H    5.2999426    0.3666009    -0.0663349
H    4.0110923    2.5024313    -0.4130052
H    1.5339878    2.3893837    -0.3670565
N    1.3883123    -1.9083038    0.4198149
H    1.8694714    -2.7812773    0.2940385
H    0.4089067    -1.9079942    0.130086
$end

--------------------------------------------------------------

             Standard Nuclear Orientation (Angstroms)
    I     Atom           X                Y                Z
 ----------------------------------------------------------------
    1      O      -1.3977068066    -1.9049242635    -0.3762792241
    2      N      -1.4755516982     0.3436506775     0.0165176597
    3      C      -4.1970490273     0.3360675819     0.0302593910
    4      C      -3.5006075206     1.5474497251     0.2484532988
    5      C      -2.1350680396     1.5064215946     0.2336573848
    6      C      -2.0825557335    -0.8866050843    -0.1968198358
    7      C      -3.5210546997    -0.8349722250    -0.1841311773
    8      H      -5.2791115284     0.3319526568     0.0340600144
    9      H      -4.0140437155     2.4789624931     0.4218645395
   10      H      -1.5143752220     2.3766665275     0.3914859371
   11      H      -4.0409324327    -1.7666595738    -0.3495231725
   12      H      -0.4378081049     0.3456786102     0.0058301841
   13      N       1.4214709504     0.3573967328    -0.0153216384
   14      C       2.1093893039    -0.7841546903     0.1663016677
   15      C       3.5178281626    -0.7986431014     0.1542592971
   16      C       4.2072610986     0.3804353392    -0.0487227293
   17      C       3.4931832889     1.5654931900    -0.2385757819
   18      C       2.1115285034     1.4926365125    -0.2129176820
   19      H       4.0442829566    -1.7310891121     0.3054135688
   20      H       5.2886499746     0.3786699988    -0.0612368608
   21      H       3.9899858706     2.5092802606    -0.4033747684
   22      H       1.5134001600     2.3842543021    -0.3606024100
   23      N       1.3874032035    -1.9162851000     0.4139887188
   24      H       1.8728789790    -2.7865882210     0.2863084037
   25      H       0.4083383055    -1.9198430606     0.1231321783
 ----------------------------------------------------------------

    8    -623.4752104199      8.40e-06  Convergence criterion met
 Total energy in the final basis set =     -623.4752104199

                    Orbital Energies (a.u.)
 --------------------------------------------------------------

 Alpha MOs
 -- Occupied --
-20.505 -15.608 -15.562 -15.552 -11.351 -11.325 -11.307 -11.287
-11.269 -11.265 -11.237 -11.235 -11.233 -11.231  -1.371  -1.287
 -1.269  -1.187  -1.104  -1.092  -1.027  -1.013  -0.884  -0.870
 -0.860  -0.846  -0.752  -0.725  -0.710  -0.690  -0.677  -0.664
 -0.638  -0.627  -0.617  -0.603  -0.598  -0.576  -0.569  -0.554
 -0.535  -0.533  -0.481  -0.457  -0.441  -0.416  -0.415  -0.391
 -0.309  -0.306

          Ground-State Mulliken Net Atomic Charges

     Atom                 Charge (a.u.)
  ----------------------------------------
      1 O                    -0.481249
      2 N                    -0.342713
      3 C                    -0.399737
      4 C                    -0.295200
      5 C                    -0.122223
      6 C                    -0.077983
      7 C                     0.163578
      8 H                     0.217536
      9 H                     0.218593
     10 H                     0.163720
     11 H                     0.244816
     12 H                     0.831865
     13 N                    -0.219062
     14 C                    -0.124463
     15 C                     0.166387
     16 C                    -0.519541
     17 C                    -0.419176
     18 C                     0.017602
     19 H                     0.207809
     20 H                     0.213270
     21 H                     0.204900
     22 H                     0.161296
     23 N                    -0.464704
     24 H                     0.253097
     25 H                     0.401581
  ----------------------------------------
  Sum of atomic charges =     0.000000

                    Cartesian Multipole Moments
 -----------------------------------------------------------------
    Charge (ESU x 10^10)
                 0.0000
    Dipole Moment (Debye)
         X       0.9671      Y       3.3305      Z       0.2055
       Tot       3.4742
    Quadrupole Moments (Debye-Ang)
        XX     -60.7187     XY      -7.5144     YY     -77.7680
        XZ      -1.8111     YZ      -0.5267     ZZ     -90.7717

 Total job time:  1128.53s(wall), 1121.26s(cpu)
        *  Thank you very much for using Q-Chem.  Have a nice day.  *
