 Q-Chem 5.0, Q-Chem, Inc., Pleasanton, CA (2017)
 Q-Chem 5.0.2 for Intel X86 EM64T Linux

User input:
--------------------------------------------------------------
$rem
SCF_PRINT                     1
BASIS                         6-311++g**
SCF_SAVE_MATRICES             1
SCF_CONVERGENCE               5
SCF_FINAL_PRINT               1
METHOD                        hf
JOBTYPE                       sp
$end

$molecule
0 1
N    -4.403627858    0.003356033    3.894349635
C    -5.231717639    -1.074213794    3.388785172
C    -4.114028146    -0.203131337    5.300014813
C    -5.064999881    1.279020449    3.699967776
H    -5.027240949    -0.220059996    5.916981022
H    -3.593998232    -1.150520809    5.432395658
H    -3.470363412    0.596298264    5.663509601
H    -6.026502925    1.337441715    4.235674271
H    -4.424188201    2.08313245    4.058008348
H    -5.254102781    1.436696713    2.639380767
H    -6.201675997    -1.135411517    3.908711233
H    -5.421511216    -0.924313435    2.327182075
H    -4.715155972    -2.024330412    3.514793112
$end

--------------------------------------------------------------

             Standard Nuclear Orientation (Angstroms)
    I     Atom           X                Y                Z
 ----------------------------------------------------------------
    1      N      -0.0000269338     0.0000569905     0.3992698628
    2      C       1.0791100360     0.8501369802    -0.0647476533
    3      C       0.1968424581    -1.3594822429    -0.0647292052
    4      C      -1.2759172216     0.5092741894    -0.0647546841
    5      H       0.2068832470    -1.4285477395    -1.1647385897
    6      H       1.1445619356    -1.7419567650     0.3108285708
    7      H      -0.6035893057    -1.9950245531     0.3106577964
    8      H      -1.3407493549     0.5351125662    -1.1647600339
    9      H      -2.0809983842    -0.1200967628     0.3109650208
   10      H      -1.4262611534     1.5201656159     0.3106940351
   11      H       1.1339878067     0.8932599118    -1.1647550758
   12      H       0.9365474857     1.8622150959     0.3105744244
   13      H       2.0295946246     0.4749001365     0.3110340686
 ----------------------------------------------------------------

    7    -173.3175128697      4.99e-06  Convergence criterion met
 Total energy in the final basis set =     -173.3175128697

                    Orbital Energies (a.u.)
 --------------------------------------------------------------

 Alpha MOs
 -- Occupied --
-15.545 -11.239 -11.239 -11.239  -1.229  -0.951  -0.951  -0.807
 -0.645  -0.631  -0.630  -0.544  -0.544  -0.517  -0.500  -0.500
 -0.356

          Ground-State Mulliken Net Atomic Charges

     Atom                 Charge (a.u.)
  ----------------------------------------
      1 N                    -0.072165
      2 C                    -0.328029
      3 C                    -0.328049
      4 C                    -0.328012
      5 H                     0.110550
      6 H                     0.120758
      7 H                     0.120754
      8 H                     0.110528
      9 H                     0.120786
     10 H                     0.120787
     11 H                     0.110537
     12 H                     0.120774
     13 H                     0.120782
  ----------------------------------------
  Sum of atomic charges =     0.000000

                    Cartesian Multipole Moments
 -----------------------------------------------------------------
    Charge (ESU x 10^10)
                 0.0000
    Dipole Moment (Debye)
         X      -0.0001      Y       0.0002      Z      -0.8345
       Tot       0.8345
    Quadrupole Moments (Debye-Ang)
        XX     -26.4444     XY       0.0000     YY     -26.4465
        XZ       0.0002     YZ      -0.0004     ZZ     -30.1371

 Total job time:  70.47s(wall), 70.28s(cpu)
        *  Thank you very much for using Q-Chem.  Have a nice day.  *
