 Q-Chem 5.0, Q-Chem, Inc., Pleasanton, CA (2017)
 Q-Chem 5.0.2 for Intel X86 EM64T Linux

User input:
--------------------------------------------------------------
$rem
SCF_PRINT                     1
BASIS                         6-311++g**
SCF_SAVE_MATRICES             1
SCF_CONVERGENCE               5
SCF_FINAL_PRINT               1
METHOD                        hf
JOBTYPE                       sp
$end

$molecule
0 1
O    -1.4663316    1.0121693    0.0
C    -0.6281464    1.9142678    0.0
N    0.7205093    1.6882688    0.0
C    1.636729    2.7052764    0.0
C    1.2769036    4.0061763    0.0
C    -0.1286005    4.3621549    0.0
N    -0.977723    3.2396433    0.0
O    -0.5972229    5.4864066    0.0
H    2.0103504    4.7938642    0.0
H    1.0232515    0.706182    0.0
H    -1.9700268    3.432385    0.0
H    2.669062    2.3883417    0.0
$end

--------------------------------------------------------------

             Standard Nuclear Orientation (Angstroms)
    I     Atom           X                Y                Z
 ----------------------------------------------------------------
    1      O       2.2420548645    -1.0547646688    -0.0000000000
    2      C       1.2047917650    -0.3911221479    -0.0000000000
    3      N       1.1863513242     0.9762138369     0.0000000000
    4      C       0.0220923372     1.6961193921     0.0000000000
    5      C      -1.1936540740     1.1097956487     0.0000000000
    6      C      -1.2929539785    -0.3366835484    -0.0000000000
    7      N      -0.0368668894    -0.9717320006    -0.0000000000
    8      O      -2.3154647781    -0.9985147229    -0.0000000000
    9      H      -2.0996436910     1.6908113542     0.0000000000
   10      H       2.0986003421     1.4494463925     0.0000000000
   11      H      -0.0493315927    -1.9825043912    -0.0000000000
   12      H       0.1496069087     2.7684528575     0.0000000000
 ----------------------------------------------------------------

    9    -412.5769396499      5.83e-06  Convergence criterion met
 Total energy in the final basis set =     -412.5769396499

             Orbital Energies (a.u.) and Symmetries
 --------------------------------------------------------------

 Alpha MOs, Restricted
 -- Occupied --
-20.546 -20.543 -15.654 -15.630 -11.423 -11.388 -11.348 -11.263
  1 A'    2 A'    3 A'    4 A'    5 A'    6 A'    7 A'    8 A'
 -1.437  -1.402  -1.318  -1.251  -1.096  -0.942  -0.906  -0.812
  9 A'   10 A'   11 A'   12 A'   13 A'   14 A'   15 A'   16 A'
 -0.773  -0.719  -0.681  -0.672  -0.652  -0.619  -0.605  -0.574
 17 A'   18 A'   19 A'    1 A"   20 A'   21 A'   22 A'    2 A"
 -0.526  -0.483  -0.451  -0.436  -0.373
  3 A"   23 A'   24 A'    4 A"    5 A"

 Beta MOs, Restricted
 -- Occupied --
-20.546 -20.543 -15.654 -15.630 -11.423 -11.388 -11.348 -11.263
  1 A'    2 A'    3 A'    4 A'    5 A'    6 A'    7 A'    8 A'
 -1.437  -1.402  -1.318  -1.251  -1.096  -0.942  -0.906  -0.812
  9 A'   10 A'   11 A'   12 A'   13 A'   14 A'   15 A'   16 A'
 -0.773  -0.719  -0.681  -0.672  -0.652  -0.619  -0.605  -0.574
 17 A'   18 A'   19 A'    1 A"   20 A'   21 A'   22 A'    2 A"
 -0.526  -0.483  -0.451  -0.436  -0.373
  3 A"   23 A'   24 A'    4 A"    5 A"

          Ground-State Mulliken Net Atomic Charges

     Atom                 Charge (a.u.)
  ----------------------------------------
      1 O                    -0.458429
      2 C                     0.566330
      3 N                    -0.538269
      4 C                     0.103434
      5 C                    -0.163008
      6 C                     0.209940
      7 N                    -0.588294
      8 O                    -0.408555
      9 H                     0.248795
     10 H                     0.390397
     11 H                     0.409666
     12 H                     0.227993
  ----------------------------------------
  Sum of atomic charges =     0.000000

                    Cartesian Multipole Moments
 -----------------------------------------------------------------
    Charge (ESU x 10^10)
                 0.0000
    Dipole Moment (Debye)
         X       1.2694      Y       5.2136      Z       0.0000
       Tot       5.3659
    Quadrupole Moments (Debye-Ang)
        XX     -60.7687     XY       3.1571     YY     -38.4271
        XZ      -0.0000     YZ       0.0000     ZZ     -46.9755

 Total job time:  199.80s(wall), 196.38s(cpu)
        *  Thank you very much for using Q-Chem.  Have a nice day.  *
