 Q-Chem 5.0, Q-Chem, Inc., Pleasanton, CA (2017)
 Q-Chem 5.0.2 for Intel X86 EM64T Linux

User input:
--------------------------------------------------------------
$rem
SCF_PRINT                     1
BASIS                         6-311++g**
SCF_SAVE_MATRICES             1
SCF_CONVERGENCE               5
SCF_FINAL_PRINT               1
METHOD                        hf
JOBTYPE                       sp
$end

$molecule
0 1
C    1.2171198    8.6352e-05    -0.737292531
C    2.232687859    0.000174717    0.216499979
C    1.925210087    0.000130109    1.575499453
C    0.592512132    0.000178132    1.981957864
C    -0.433049194    7.025e-05    1.038766795
H    1.448302007    -2.0318e-05    -1.79278536
H    3.264633432    0.000102432    -0.107052277
H    2.717093974    -2.3151e-05    2.311239059
H    0.345707498    0.000109507    3.034933333
H    -1.468501456    -9.3207e-05    1.34757497
C    -0.111081725    -0.000108736    -0.316810844
Br    -1.493755973    -0.001747763    -1.606462802
$end

--------------------------------------------------------------

             Standard Nuclear Orientation (Angstroms)
    I     Atom           X                Y                Z
 ----------------------------------------------------------------
    1      C      -0.7764867238    -1.2114557191     0.0004862167
    2      C      -2.1697077517    -1.2056673001    -0.0000651901
    3      C      -2.8709383820    -0.0016334030    -0.0004263043
    4      C      -2.1727378927     1.2041062945    -0.0000521295
    5      C      -0.7794295778     1.2128866202     0.0004798672
    6      H      -0.2262818864    -2.1413938639     0.0006279538
    7      H      -2.7043326922    -2.1457597437    -0.0003872927
    8      H      -3.9518596145    -0.0029558415    -0.0010759536
    9      H      -2.7097949561     2.1428498614    -0.0003630835
   10      H      -0.2321895501     2.1445798348     0.0005719824
   11      C      -0.0911340933     0.0014811855     0.0006114134
   12      Br      1.7996304351     0.0001249624    -0.0001593385
 ----------------------------------------------------------------

    8   -2802.5396904034      5.34e-06  Convergence criterion met
 Total energy in the final basis set =    -2802.5396904034

                    Orbital Energies (a.u.)
 --------------------------------------------------------------

 Alpha MOs
 -- Occupied --
******* -65.160 -58.520 -58.519 -58.519 -11.304 -11.256 -11.256
-11.254 -11.253 -11.250  -9.840  -7.454  -7.446  -7.446  -3.194
 -3.190  -3.189  -3.180  -3.180  -1.179  -1.076  -1.036  -0.977
 -0.849  -0.821  -0.714  -0.648  -0.647  -0.608  -0.578  -0.534
 -0.518  -0.496  -0.440  -0.417  -0.354  -0.335

          Ground-State Mulliken Net Atomic Charges

     Atom                 Charge (a.u.)
  ----------------------------------------
      1 C                    -0.393960
      2 C                    -0.139448
      3 C                    -0.367795
      4 C                    -0.139708
      5 C                    -0.394606
      6 H                     0.257268
      7 H                     0.202983
      8 H                     0.207020
      9 H                     0.202973
     10 H                     0.257281
     11 C                     0.689009
     12 Br                   -0.381019
  ----------------------------------------
  Sum of atomic charges =     0.000000

                    Cartesian Multipole Moments
 -----------------------------------------------------------------
    Charge (ESU x 10^10)
                 0.0000
    Dipole Moment (Debye)
         X      -2.0344      Y      -0.0008      Z      -0.0007
       Tot       2.0344
    Quadrupole Moments (Debye-Ang)
        XX     -49.4740     XY      -0.0106     YY     -48.3964
        XZ       0.0034     YZ      -0.0001     ZZ     -58.7968

 Total job time:  289.73s(wall), 266.78s(cpu)
        *  Thank you very much for using Q-Chem.  Have a nice day.  *
