 Q-Chem 5.0, Q-Chem, Inc., Pleasanton, CA (2017)
 Q-Chem 5.0.2 for Intel X86 EM64T Linux

User input:
--------------------------------------------------------------
$rem
SCF_PRINT                     1
BASIS                         6-311++g**
SCF_SAVE_MATRICES             1
SCF_CONVERGENCE               5
SCF_FINAL_PRINT               1
METHOD                        hf
JOBTYPE                       sp
$end

$molecule
0 1
I    -0.205324409    -3.368518313    1.883768735
C    0.06919685    -5.471929013    1.872749216
H    0.07360107    -5.805636321    0.83982588
H    1.018048659    -5.689860688    2.352917164
H    -0.752874404    -5.922024645    2.420412903
$end

--------------------------------------------------------------

             Standard Nuclear Orientation (Angstroms)
    I     Atom           X                Y                Z
 ----------------------------------------------------------------
    1      I       0.3242226087     0.0000001766     0.0000042029
    2      C      -1.7970552901     0.0000143365     0.0000237781
    3      H      -2.1338801027     1.0298632555     0.0653753835
    4      H      -2.1334625012    -0.4582544173    -0.9247438502
    5      H      -2.1341239144    -0.5717042165     0.8590030429
 ----------------------------------------------------------------

    7   -6956.4384862142      9.89e-06  Convergence criterion met
 Total energy in the final basis set =    -6956.4384862142

                    Orbital Energies (a.u.)
 --------------------------------------------------------------

 Alpha MOs
 -- Occupied --
*******-180.854-169.660-169.659-169.659 -37.907 -33.095 -33.092
-33.092 -24.280 -24.278 -24.278 -24.274 -24.274 -11.283  -7.225
 -5.458  -5.447  -5.447  -2.381  -2.376  -2.376  -2.364  -2.364
 -0.999  -0.798  -0.608  -0.608  -0.469  -0.362  -0.362

          Ground-State Mulliken Net Atomic Charges

     Atom                 Charge (a.u.)
  ----------------------------------------
      1 I                    -0.060723
      2 C                    -0.407057
      3 H                     0.155926
      4 H                     0.155925
      5 H                     0.155929
  ----------------------------------------
  Sum of atomic charges =     0.000000

                    Cartesian Multipole Moments
 -----------------------------------------------------------------
    Charge (ESU x 10^10)
                 0.0000
    Dipole Moment (Debye)
         X      -2.0897      Y      -0.0000      Z      -0.0002
       Tot       2.0897
    Quadrupole Moments (Debye-Ang)
        XX     -31.1885     XY      -0.0000     YY     -36.7880
        XZ      -0.0007     YZ      -0.0000     ZZ     -36.7884

 Total job time:  26.61s(wall), 25.50s(cpu)
        *  Thank you very much for using Q-Chem.  Have a nice day.  *
