 Q-Chem 5.0, Q-Chem, Inc., Pleasanton, CA (2017)
 Q-Chem 5.0.2 for Intel X86 EM64T Linux

User input:
--------------------------------------------------------------
$rem
SCF_PRINT                     1
BASIS                         6-311++g**
SCF_SAVE_MATRICES             1
SCF_CONVERGENCE               5
SCF_FINAL_PRINT               1
METHOD                        hf
JOBTYPE                       sp
$end

$molecule
0 1
O    -0.257020059    0.000182833    3.141151173
H    -1.048680694    -4.0312e-05    3.684018874
C    0.880527259    2.5604e-05    3.997486173
H    1.753839233    9.853e-05    3.353020187
H    0.91354958    0.888915397    4.626706548
H    0.913509357    -0.889046121    4.62645042
$end

--------------------------------------------------------------

             Standard Nuclear Orientation (Angstroms)
    I     Atom           X                Y                Z
 ----------------------------------------------------------------
    1      O       0.7486211483    -0.1222631652    -0.0000003080
    2      H       1.1445034572     0.7522133348     0.0000056875
    3      C      -0.6680099660     0.0208446394     0.0000003562
    4      H      -1.0810950309    -0.9828340483    -0.0001930689
    5      H      -1.0221702107     0.5416625692     0.8890746069
    6      H      -1.0221476061     0.5419956298    -0.8888868987
 ----------------------------------------------------------------

    7    -115.0796613313      9.37e-06  Convergence criterion met
 Total energy in the final basis set =     -115.0796613313

                    Orbital Energies (a.u.)
 --------------------------------------------------------------

 Alpha MOs
 -- Occupied --
-20.558 -11.273  -1.358  -0.929  -0.692  -0.622  -0.594  -0.505
 -0.453

          Ground-State Mulliken Net Atomic Charges

     Atom                 Charge (a.u.)
  ----------------------------------------
      1 O                    -0.389573
      2 H                     0.257037
      3 C                    -0.210562
      4 H                     0.133163
      5 H                     0.104971
      6 H                     0.104963
  ----------------------------------------
  Sum of atomic charges =     0.000000

                    Cartesian Multipole Moments
 -----------------------------------------------------------------
    Charge (ESU x 10^10)
                 0.0000
    Dipole Moment (Debye)
         X      -1.0879      Y       1.7035      Z      -0.0000
       Tot       2.0212
    Quadrupole Moments (Debye-Ang)
        XX     -12.9916     XY       2.4484     YY     -12.1617
        XZ       0.0000     YZ       0.0000     ZZ     -13.7421

 Total job time:  6.39s(wall), 6.13s(cpu)
        *  Thank you very much for using Q-Chem.  Have a nice day.  *
