 Q-Chem 5.0, Q-Chem, Inc., Pleasanton, CA (2017)
 Q-Chem 5.0.2 for Intel X86 EM64T Linux

User input:
--------------------------------------------------------------
$rem
SCF_PRINT                     1
BASIS                         6-311++g**
SCF_SAVE_MATRICES             1
SCF_CONVERGENCE               5
SCF_FINAL_PRINT               1
METHOD                        hf
JOBTYPE                       sp
$end

$molecule
0 1
O    4.929738023    0.840944568    1.315419483
C    5.505619501    0.2504211    0.427801344
H    6.603732935    0.210582669    0.377172685
H    4.957103893    -0.273495438    -0.369061306
$end

--------------------------------------------------------------

             Standard Nuclear Orientation (Angstroms)
    I     Atom           X                Y                Z
 ----------------------------------------------------------------
    1      O       0.6781495251    -0.0000094227     0.0000019819
    2      C      -0.5335531620     0.0000298427    -0.0000081786
    3      H      -1.1119218492     0.9357077450     0.0000166099
    4      H      -1.1119553792    -0.9358114197     0.0000166064
 ----------------------------------------------------------------

    8    -113.9009861059      9.17e-06  Convergence criterion met
 Total energy in the final basis set =     -113.9009861059

                    Orbital Energies (a.u.)
 --------------------------------------------------------------

 Alpha MOs
 -- Occupied --
-20.580 -11.346  -1.406  -0.874  -0.696  -0.652  -0.535  -0.445

          Ground-State Mulliken Net Atomic Charges

     Atom                 Charge (a.u.)
  ----------------------------------------
      1 O                    -0.307633
      2 C                     0.118714
      3 H                     0.094479
      4 H                     0.094440
  ----------------------------------------
  Sum of atomic charges =    -0.000000

                    Cartesian Multipole Moments
 -----------------------------------------------------------------
    Charge (ESU x 10^10)
                 0.0000
    Dipole Moment (Debye)
         X      -2.9790      Y       0.0002      Z       0.0000
       Tot       2.9790
    Quadrupole Moments (Debye-Ang)
        XX     -12.2175     XY      -0.0002     YY     -11.4697
        XZ      -0.0000     YZ      -0.0000     ZZ     -11.7450

 Total job time:  3.46s(wall), 2.97s(cpu)
        *  Thank you very much for using Q-Chem.  Have a nice day.  *
