 Q-Chem 5.0, Q-Chem, Inc., Pleasanton, CA (2017)
 Q-Chem 5.0.2 for Intel X86 EM64T Linux

User input:
--------------------------------------------------------------
$rem
SCF_PRINT                     1
BASIS                         6-311++g**
SCF_SAVE_MATRICES             1
SCF_CONVERGENCE               5
SCF_FINAL_PRINT               1
METHOD                        hf
JOBTYPE                       sp
$end

$molecule
0 1
C    -0.739281    0.5158785    -1.2071079
C    -1.4261442    0.3965455    0.0
C    -0.739281    0.5158785    1.2071079
C    0.6342269    0.7546398    1.2070735
C    1.3210434    0.8737566    0.0
C    0.6342269    0.7546398    -1.2070735
H    -1.2719495    0.4206316    -2.1432894
H    -2.4902205    0.2052381    0.0
H    -1.2719495    0.4206316    2.1432894
H    1.1668005    0.8474885    2.143695
H    2.3863585    1.0596312    0.0
H    1.1668005    0.8474885    -2.143695
N    0.180393    -2.9491231    0.0
H    0.7595495    -3.1459477    -0.8060729
H    0.7595495    -3.1459477    0.8060729
H    0.0444167    -1.9449399    0.0
$end

--------------------------------------------------------------

             Standard Nuclear Orientation (Angstroms)
    I     Atom           X                Y                Z
 ----------------------------------------------------------------
    1      C       0.5725209723     0.7405213638    -1.2071079000
    2      C       0.4662042504     1.4295193138    -0.0000000000
    3      C       0.5725209723     0.7405213638     1.2071079000
    4      C       0.7852538328    -0.6372578782     1.2070735000
    5      C       0.8913552769    -1.3262050462     0.0000000000
    6      C       0.7852538328    -0.6372578782    -1.2070735000
    7      H       0.4873687952     1.2748965219    -2.1432894000
    8      H       0.2950625904     2.4970245483    -0.0000000000
    9      H       0.4873687952     1.2748965219     2.1432894000
   10      H       0.8680100346    -1.1714927812     2.1436950000
   11      H       1.0570416722    -2.3948460746     0.0000000000
   12      H       0.8680100346    -1.1714927812    -2.1436950000
   13      N      -2.9092599652    -0.1134328840    -0.0000000000
   14      H      -3.1170065288    -0.6887619551    -0.8060729000
   15      H      -3.1170065288    -0.6887619551     0.8060729000
   16      H      -1.9026839323     0.0035207105    -0.0000000000
 ----------------------------------------------------------------

    7    -286.9706707883      5.91e-06  Convergence criterion met
 Total energy in the final basis set =     -286.9706707883

             Orbital Energies (a.u.) and Symmetries
 --------------------------------------------------------------

 Alpha MOs, Restricted
 -- Occupied --
-15.526 -11.245 -11.244 -11.244 -11.243 -11.243 -11.242  -1.160
  1 A'    2 A'    1 A"    3 A'    2 A"    4 A'    5 A'    6 A'
 -1.130  -1.023  -1.023  -0.832  -0.832  -0.718  -0.651  -0.627
  7 A'    3 A"    8 A'    4 A"    9 A'   10 A'   11 A'    5 A"
 -0.615  -0.614  -0.596  -0.596  -0.508  -0.502  -0.502  -0.416
 12 A'    6 A"    7 A"   13 A'   14 A'    8 A"   15 A'   16 A'
 -0.345  -0.344
  9 A"   17 A'

 Beta MOs, Restricted
 -- Occupied --
-15.526 -11.245 -11.244 -11.244 -11.243 -11.243 -11.242  -1.160
  1 A'    2 A'    1 A"    3 A'    2 A"    4 A'    5 A'    6 A'
 -1.130  -1.023  -1.023  -0.832  -0.832  -0.718  -0.651  -0.627
  7 A'    3 A"    8 A'    4 A"    9 A'   10 A'   11 A'    5 A"
 -0.615  -0.614  -0.596  -0.596  -0.508  -0.502  -0.502  -0.416
 12 A'    6 A"    7 A"   13 A'   14 A'    8 A"   15 A'   16 A'
 -0.345  -0.344
  9 A"   17 A'

          Ground-State Mulliken Net Atomic Charges

     Atom                 Charge (a.u.)
  ----------------------------------------
      1 C                    -0.146578
      2 C                    -0.182888
      3 C                    -0.146578
      4 C                    -0.373451
      5 C                    -0.011566
      6 C                    -0.373451
      7 H                     0.206227
      8 H                     0.212984
      9 H                     0.206227
     10 H                     0.198030
     11 H                     0.204368
     12 H                     0.198030
     13 N                    -0.698945
     14 H                     0.230833
     15 H                     0.230833
     16 H                     0.245924
  ----------------------------------------
  Sum of atomic charges =    -0.000000

                    Cartesian Multipole Moments
 -----------------------------------------------------------------
    Charge (ESU x 10^10)
                -0.0000
    Dipole Moment (Debye)
         X       1.2010      Y      -1.4538      Z       0.0000
       Tot       1.8858
    Quadrupole Moments (Debye-Ang)
        XX     -53.9217     XY       4.1897     YY     -39.7388
        XZ      -0.0000     YZ       0.0000     ZZ     -38.0199

 Total job time:  112.41s(wall), 111.26s(cpu)
        *  Thank you very much for using Q-Chem.  Have a nice day.  *
