 Q-Chem 5.0, Q-Chem, Inc., Pleasanton, CA (2017)
 Q-Chem 5.0.2 for Intel X86 EM64T Linux

User input:
--------------------------------------------------------------
$rem
SCF_PRINT                     1
BASIS                         6-311++g**
SCF_SAVE_MATRICES             1
SCF_CONVERGENCE               5
SCF_FINAL_PRINT               1
METHOD                        hf
JOBTYPE                       sp
$end

$molecule
0 1
C    -0.099779142    -0.049213106    -0.049809806
H    -0.812383509    0.769437899    -0.053814782
H    -0.386626161    -0.773928179    0.705768112
H    0.890551861    0.333663823    0.175221084
H    -0.089826477    -0.524172039    -1.025860985
F    -1.055049793    -3.072557852    -0.601705876
F    -1.471602008    -4.387243371    -0.835378773
$end

--------------------------------------------------------------

             Standard Nuclear Orientation (Angstroms)
    I     Atom           X                Y                Z
 ----------------------------------------------------------------
    1      C      -2.5184576971    -0.0007566455    -0.0000679185
    2      H      -3.0752296419    -0.0108190337    -0.9316870690
    3      H      -1.8811051603    -0.8781095551     0.0491738880
    4      H      -3.2107224403    -0.0104854175     0.8357933235
    5      H      -1.9088567811     0.8962160248     0.0467049329
    6      F       0.6998853239     0.0028340876     0.0001517126
    7      F       2.0986324768    -0.0019743260    -0.0001047752
 ----------------------------------------------------------------

    7    -238.9422381106      7.65e-06  Convergence criterion met
 Total energy in the final basis set =     -238.9422381106

                    Orbital Energies (a.u.)
 --------------------------------------------------------------

 Alpha MOs
 -- Occupied --
-26.435 -26.435 -11.207  -1.780  -1.500  -0.946  -0.818  -0.818
 -0.760  -0.670  -0.670  -0.547  -0.547  -0.546

          Ground-State Mulliken Net Atomic Charges

     Atom                 Charge (a.u.)
  ----------------------------------------
      1 C                    -0.471562
      2 H                     0.120234
      3 H                     0.111800
      4 H                     0.118615
      5 H                     0.112206
      6 F                     0.026197
      7 F                    -0.017490
  ----------------------------------------
  Sum of atomic charges =    -0.000000

                    Cartesian Multipole Moments
 -----------------------------------------------------------------
    Charge (ESU x 10^10)
                -0.0000
    Dipole Moment (Debye)
         X      -0.0280      Y      -0.0001      Z       0.0012
       Tot       0.0280
    Quadrupole Moments (Debye-Ang)
        XX     -17.4528     XY      -0.0009     YY     -17.9213
        XZ      -0.0020     YZ       0.0000     ZZ     -17.9270

 Total job time:  9.49s(wall), 8.75s(cpu)
        *  Thank you very much for using Q-Chem.  Have a nice day.  *
