 Q-Chem 5.0, Q-Chem, Inc., Pleasanton, CA (2017)
 Q-Chem 5.0.2 for Intel X86 EM64T Linux

User input:
--------------------------------------------------------------
$rem
SCF_PRINT                     1
BASIS                         6-311++g**
SCF_SAVE_MATRICES             1
SCF_CONVERGENCE               5
SCF_FINAL_PRINT               1
METHOD                        hf
JOBTYPE                       sp
$end

$molecule
0 1
I    -2.421008954    -2.638344596    -1.211091634
I    -4.195887954    -4.415349596    -2.083913634
$end

--------------------------------------------------------------

             Standard Nuclear Orientation (Angstroms)
    I     Atom           X                Y                Z
 ----------------------------------------------------------------
    1      I      -0.0000000000    -0.0000000000     1.3294510595
    2      I      -0.0000000000     0.0000000000    -1.3294510595
 ----------------------------------------------------------------

    7  -13833.6455468045      2.99e-06  Convergence criterion met
 Total energy in the final basis set =   -13833.6455468045

                    Orbital Energies (a.u.)
 --------------------------------------------------------------

 Alpha MOs
 -- Occupied --
***************-180.897-180.897-169.704-169.704-169.702-169.702
*******-169.702 -37.951 -37.951 -33.140 -33.140 -33.134 -33.134
-33.134 -33.134 -24.324 -24.324 -24.322 -24.322 -24.322 -24.322
-24.317 -24.317 -24.317 -24.317  -7.267  -7.267  -5.503  -5.503
 -5.488  -5.488  -5.488  -5.488  -2.429  -2.423  -2.421  -2.421
 -2.419  -2.419  -2.403  -2.403  -2.403  -2.403  -0.924  -0.787
 -0.476  -0.444  -0.444  -0.362  -0.362

          Ground-State Mulliken Net Atomic Charges

     Atom                 Charge (a.u.)
  ----------------------------------------
      1 I                     0.000000
      2 I                     0.000000
  ----------------------------------------
  Sum of atomic charges =     0.000000

                    Cartesian Multipole Moments
 -----------------------------------------------------------------
    Charge (ESU x 10^10)
                 0.0000
    Dipole Moment (Debye)
         X       0.0000      Y       0.0000      Z       0.0000
       Tot       0.0000
    Quadrupole Moments (Debye-Ang)
        XX     -58.6283     XY       0.0000     YY     -58.6283
        XZ      -0.0000     YZ      -0.0000     ZZ     -51.6423

 Total job time:  46.21s(wall), 42.36s(cpu)
        *  Thank you very much for using Q-Chem.  Have a nice day.  *
