 Q-Chem 5.0, Q-Chem, Inc., Pleasanton, CA (2017)
 Q-Chem 5.0.2 for Intel X86 EM64T Linux

User input:
--------------------------------------------------------------
$rem
SCF_PRINT                     1
BASIS                         6-311++g**
SCF_SAVE_MATRICES             1
SCF_CONVERGENCE               5
SCF_FINAL_PRINT               1
METHOD                        hf
JOBTYPE                       sp
$end

$molecule
0 1
H    -0.034768801    0.294585208    0.057187563
C    -0.017014316    0.26196041    1.141050258
C    1.201240991    0.285824105    1.82004202
C    1.223051195    0.249206224    3.21325633
C    0.027949888    0.188858607    3.92796426
C    -1.189662929    0.164642236    3.250361662
C    -1.212924754    0.201264985    1.856906008
H    2.130707182    0.33262652    1.263780775
H    2.169947323    0.266273588    3.740739601
H    0.045570678    0.158814598    5.011482817
H    -2.118962097    0.116212797    3.806470317
H    -2.160018595    0.18369422    1.329378876
$end

--------------------------------------------------------------

             Standard Nuclear Orientation (Angstroms)
    I     Atom           X                Y                Z
 ----------------------------------------------------------------
    1      H      -0.4974317588     2.4286026688    -0.0033703639
    2      C      -0.2799056709     1.3661498780     0.0004255812
    3      C      -1.3231934837     0.4402471949     0.0002188388
    4      C      -1.0428053391    -0.9251263570    -0.0002501423
    5      C       0.2796587631    -1.3653592055    -0.0006129892
    6      C       1.3226329975    -0.4409582446    -0.0000694247
    7      C       1.0436090072     0.9249650453     0.0003511271
    8      H      -2.3517969887     0.7830285944     0.0006438121
    9      H      -1.8537059061    -1.6445571637     0.0010758186
   10      H       0.4971390191    -2.4273980194     0.0006093786
   11      H       2.3511050374    -0.7836578048     0.0011409633
   12      H       1.8547129518     1.6444718588    -0.0004775539
 ----------------------------------------------------------------

    6    -230.7561413589      6.50e-06  Convergence criterion met
 Total energy in the final basis set =     -230.7561413589

                    Orbital Energies (a.u.)
 --------------------------------------------------------------

 Alpha MOs
 -- Occupied --
-11.239 -11.238 -11.238 -11.237 -11.237 -11.236  -1.152  -1.017
 -1.016  -0.825  -0.825  -0.711  -0.644  -0.621  -0.590  -0.589
 -0.502  -0.496  -0.496  -0.337  -0.337

          Ground-State Mulliken Net Atomic Charges

     Atom                 Charge (a.u.)
  ----------------------------------------
      1 H                     0.193469
      2 C                    -0.193344
      3 C                    -0.193651
      4 C                    -0.193193
      5 C                    -0.192774
      6 C                    -0.193296
      7 C                    -0.193611
      8 H                     0.193347
      9 H                     0.193228
     10 H                     0.193200
     11 H                     0.193245
     12 H                     0.193380
  ----------------------------------------
  Sum of atomic charges =    -0.000000

                    Cartesian Multipole Moments
 -----------------------------------------------------------------
    Charge (ESU x 10^10)
                -0.0000
    Dipole Moment (Debye)
         X       0.0001      Y      -0.0009      Z      -0.0003
       Tot       0.0010
    Quadrupole Moments (Debye-Ang)
        XX     -31.9245     XY       0.0001     YY     -31.9296
        XZ       0.0003     YZ      -0.0153     ZZ     -41.3297

 Total job time:  86.33s(wall), 83.18s(cpu)
        *  Thank you very much for using Q-Chem.  Have a nice day.  *
