 Q-Chem 5.0, Q-Chem, Inc., Pleasanton, CA (2017)
 Q-Chem 5.0.2 for Intel X86 EM64T Linux

User input:
--------------------------------------------------------------
$rem
SCF_PRINT                     1
BASIS                         6-311++g**
SCF_SAVE_MATRICES             1
SCF_CONVERGENCE               5
SCF_FINAL_PRINT               1
METHOD                        hf
JOBTYPE                       sp
$end

$molecule
0 1
Cl    0.37773392    -4.83e-07    0.006430557
H    0.049409273    -1.882e-06    1.255616511
$end

--------------------------------------------------------------

             Standard Nuclear Orientation (Angstroms)
    I     Atom           X                Y                Z
 ----------------------------------------------------------------
    1      Cl      0.0000000000    -0.0000000000    -0.0717562451
    2      H      -0.0000000000    -0.0000000000     1.2198561664
 ----------------------------------------------------------------

    7    -460.0951826729      4.97e-06  Convergence criterion met
 Total energy in the final basis set =     -460.0951826729

                    Orbital Energies (a.u.)
 --------------------------------------------------------------

 Alpha MOs
 -- Occupied --
******* -10.576  -8.044  -8.041  -8.041  -1.116  -0.624  -0.477
 -0.477

          Ground-State Mulliken Net Atomic Charges

     Atom                 Charge (a.u.)
  ----------------------------------------
      1 Cl                   -0.135653
      2 H                     0.135653
  ----------------------------------------
  Sum of atomic charges =    -0.000000

                    Cartesian Multipole Moments
 -----------------------------------------------------------------
    Charge (ESU x 10^10)
                -0.0000
    Dipole Moment (Debye)
         X      -0.0000      Y      -0.0000      Z       1.4590
       Tot       1.4590
    Quadrupole Moments (Debye-Ang)
        XX     -14.1874     XY       0.0000     YY     -14.1874
        XZ       0.0000     YZ       0.0000     ZZ     -10.3997

 Total job time:  1.83s(wall), 1.70s(cpu)
        *  Thank you very much for using Q-Chem.  Have a nice day.  *
