 Q-Chem 5.0, Q-Chem, Inc., Pleasanton, CA (2017)
 Q-Chem 5.0.2 for Intel X86 EM64T Linux

User input:
--------------------------------------------------------------
$rem
SCF_PRINT                     1
BASIS                         6-311++g**
SCF_SAVE_MATRICES             1
SCF_CONVERGENCE               5
SCF_FINAL_PRINT               1
METHOD                        hf
JOBTYPE                       sp
$end

$molecule
0 1
C    -2.3095e-05    0.000461919    -1.900304972
H    2.4593e-05    -0.001407092    -2.986061026
H    -0.885500277    -0.510272086    -1.535173451
H    0.885623343    -0.510121803    -1.535137023
H    -9.3238e-05    1.023638315    -1.537792773
$end

--------------------------------------------------------------

             Standard Nuclear Orientation (Angstroms)
    I     Atom           X                Y                Z
 ----------------------------------------------------------------
    1      C       0.0007055875    -0.0000107582     0.0000080129
    2      H       1.0864608409     0.0020278210    -0.0010303018
    3      H      -0.3621266001    -0.2754248392     0.9852693889
    4      H      -0.3656462085     0.9897286038    -0.2541874596
    5      H      -0.3629215570    -0.7162670366    -0.7300997052
 ----------------------------------------------------------------

    6     -40.2091432542      6.65e-06  Convergence criterion met
 Total energy in the final basis set =      -40.2091432542

                    Orbital Energies (a.u.)
 --------------------------------------------------------------

 Alpha MOs
 -- Occupied --
-11.206  -0.945  -0.546  -0.546  -0.546

          Ground-State Mulliken Net Atomic Charges

     Atom                 Charge (a.u.)
  ----------------------------------------
      1 C                    -0.468552
      2 H                     0.117066
      3 H                     0.117167
      4 H                     0.117155
      5 H                     0.117163
  ----------------------------------------
  Sum of atomic charges =    -0.000000

                    Cartesian Multipole Moments
 -----------------------------------------------------------------
    Charge (ESU x 10^10)
                -0.0000
    Dipole Moment (Debye)
         X      -0.0025      Y      -0.0000      Z       0.0000
       Tot       0.0025
    Quadrupole Moments (Debye-Ang)
        XX      -8.4121     XY       0.0001     YY      -8.4269
        XZ      -0.0000     YZ       0.0000     ZZ      -8.4267

 Total job time:  2.20s(wall), 2.07s(cpu)
        *  Thank you very much for using Q-Chem.  Have a nice day.  *
