 Q-Chem 5.0, Q-Chem, Inc., Pleasanton, CA (2017)
 Q-Chem 5.0.2 for Intel X86 EM64T Linux

User input:
--------------------------------------------------------------
$rem
SCF_PRINT                     1
BASIS                         6-311++g**
SCF_SAVE_MATRICES             1
SCF_CONVERGENCE               5
SCF_FINAL_PRINT               1
METHOD                        hf
JOBTYPE                       sp
$end

$molecule
0 1
C    -0.43601987    -1.503e-06    1.035407288
C    0.589762206    -1.3214e-05    1.978500062
C    1.922247312    -6.201e-06    1.571695588
C    2.228266034    -2.1972e-05    0.212569121
C    1.211087138    -6.405e-06    -0.74015358
H    -1.46924203    -1.95e-06    1.352224613
H    0.343101091    -8.425e-06    3.031629685
H    2.714694228    1.1502e-05    2.307032918
H    3.260261396    -2.6554e-05    -0.11155152
H    1.450707808    -1.0108e-05    -1.793985522
C    -0.120402824    2.2122e-05    -0.32357594
I    -1.658224104    0.000221203    -1.73801997
$end

--------------------------------------------------------------

             Standard Nuclear Orientation (Angstroms)
    I     Atom           X                Y                Z
 ----------------------------------------------------------------
    1      C       1.2350350299    -1.2090083175    -0.0000584993
    2      C       2.6284644544    -1.2063096965     0.0000077426
    3      C       3.3317217449    -0.0036311781     0.0000575488
    4      C       2.6347871532     1.2026666227     0.0000062580
    5      C       1.2411483387     1.2128794832    -0.0000561025
    6      H       0.6906563581    -2.1425891173    -0.0000920792
    7      H       3.1614790864    -2.1474893338     0.0000396437
    8      H       4.4127789791    -0.0065215498     0.0001357153
    9      H       3.1733109401     2.1407821525     0.0000344944
   10      H       0.7024837465     2.1498001221    -0.0000872459
   11      C       0.5452508467     0.0036941665    -0.0000699757
   12      I      -1.5441349909     0.0000805895     0.0000122196
 ----------------------------------------------------------------

    8   -7146.9808481700      4.74e-06  Convergence criterion met
 Total energy in the final basis set =    -7146.9808481700

                    Orbital Energies (a.u.)
 --------------------------------------------------------------

 Alpha MOs
 -- Occupied --
*******-180.862-169.668-169.667-169.667 -37.916 -33.104 -33.100
-33.100 -24.288 -24.287 -24.286 -24.283 -24.283 -11.295 -11.257
-11.257 -11.253 -11.253 -11.251  -7.233  -5.466  -5.456  -5.455
 -2.390  -2.385  -2.384  -2.372  -2.372  -1.173  -1.041  -1.035
 -0.876  -0.847  -0.798  -0.709  -0.645  -0.643  -0.607  -0.566
 -0.528  -0.516  -0.467  -0.406  -0.373  -0.353  -0.326

          Ground-State Mulliken Net Atomic Charges

     Atom                 Charge (a.u.)
  ----------------------------------------
      1 C                    -0.686661
      2 C                    -0.053551
      3 C                    -0.394680
      4 C                    -0.051186
      5 C                    -0.692527
      6 H                     0.179866
      7 H                     0.209828
      8 H                     0.198110
      9 H                     0.209929
     10 H                     0.179613
     11 C                     0.925409
     12 I                    -0.024150
  ----------------------------------------
  Sum of atomic charges =    -0.000000

                    Cartesian Multipole Moments
 -----------------------------------------------------------------
    Charge (ESU x 10^10)
                -0.0000
    Dipole Moment (Debye)
         X       1.9968      Y      -0.0026      Z       0.0001
       Tot       1.9968
    Quadrupole Moments (Debye-Ang)
        XX     -57.1182     XY       0.0183     YY     -59.0598
        XZ       0.0003     YZ      -0.0000     ZZ     -69.4519

 Total job time:  270.69s(wall), 265.74s(cpu)
        *  Thank you very much for using Q-Chem.  Have a nice day.  *
