 Q-Chem 5.0, Q-Chem, Inc., Pleasanton, CA (2017)
 Q-Chem 5.0.2 for Intel X86 EM64T Linux

User input:
--------------------------------------------------------------
$rem
SCF_PRINT                     1
BASIS                         6-311++g**
SCF_SAVE_MATRICES             1
SCF_CONVERGENCE               5
SCF_FINAL_PRINT               1
METHOD                        hf
JOBTYPE                       sp
$end

$molecule
0 1
N    0.2793014    2.4068393    -0.6057517
C    -1.084857    2.4457461    -0.5511608
H    -1.6594403    3.0230294    -1.2560905
N    -1.5977117    1.7179877    0.4287543
C    -0.4897255    1.1714358    1.030191
C    -0.3461366    0.291471    2.1172343
N    -1.418709    -0.1677767    2.8101441
H    -1.238875    -0.9594802    3.4047578
H    -2.2918734    -0.1788223    2.3073619
N    0.885763    -0.0700763    2.4919494
C    1.9352348    0.4072878    1.7968022
H    2.906033    0.0788414    2.1458181
N    1.9409775    1.2242019    0.7402202
C    0.6952186    1.5779858    0.4063984
H    0.8610073    2.8298045    -1.3104502
N    1.2754606    -0.6478993    -1.9779104
C    1.4130533    -1.553685    -0.9550667
H    2.4258769    -1.867078    -0.7468778
C    0.3575976    -2.0239499    -0.2530575
C    0.4821292    -3.0179494    0.8521221
H    0.1757705    -2.5756065    1.7986281
H    -0.1601691    -3.8770412    0.6639498
H    1.5112443    -3.3572767    0.9513659
C    -0.9684711    -1.5298112    -0.5939792
O    -2.002928    -1.8396957    -0.0199453
N    -0.9956916    -0.638387    -1.672042
H    -1.9014057    -0.250172    -1.898576
C    0.0684702    -0.1191762    -2.3763759
O    -0.0397875    0.7227006    -3.2531083
H    2.0853289    -0.2760176    -2.4454577
$end

--------------------------------------------------------------

             Standard Nuclear Orientation (Angstroms)
    I     Atom           X                Y                Z
 ----------------------------------------------------------------
    1      N      -1.0629431107     2.2628546546    -0.3590224788
    2      C      -1.0087042599     2.3686562062     1.0015973154
    3      H      -1.8055200808     2.8285130923     1.5619044195
    4      N       0.0925712956     1.8580060977     1.5300993996
    5      C       0.7789119357     1.3866106278     0.4370297130
    6      C       2.0100152981     0.7188094340     0.3143715125
    7      N       2.7825139917     0.4419695216     1.3951348656
    8      H       3.5131653321    -0.2322565649     1.2393531122
    9      H       2.2956264858     0.3744391818     2.2747417240
   10      N       2.4384280462     0.3816603887    -0.9068973028
   11      C       1.6604890943     0.6768416487    -1.9652810629
   12      H       2.0589893989     0.3784070807    -2.9266720329
   13      N       0.4701998143     1.2821207882    -1.9896888738
   14      C       0.0834898567     1.6198344896    -0.7548123037
   15      H      -1.8374388853     2.5225615930    -0.9477413350
   16      N      -1.8477001806    -1.0329180194    -1.2126145280
   17      C      -0.6748265208    -1.7377486762    -1.3273744671
   18      H      -0.4177317649    -2.0493553439    -2.3294587981
   19      C       0.1085660660    -2.0244332181    -0.2633910292
   20      C       1.3788420304    -2.8000041908    -0.3626569048
   21      H       2.2281179687    -2.1769141932    -0.0871832439
   22      H       1.3577114727    -3.6512717968     0.3162330745
   23      H       1.5336385093    -3.1580084903    -1.3785019762
   24      C      -0.3108048561    -1.5468751097     1.0461604743
   25      O       0.3168556194    -1.7007944269     2.0844261295
   26      N      -1.5358898281    -0.8710567208     1.0519723000
   27      H      -1.8255639643    -0.4939217118     1.9442753035
   28      C      -2.3307350068    -0.5371225213    -0.0226511347
   29      O      -3.3483205356     0.1308970176     0.0634044547
   30      H      -2.3809971655    -0.7888826877    -2.0304312695
 ----------------------------------------------------------------

    9    -916.2572784496      3.63e-06  Convergence criterion met
 Total energy in the final basis set =     -916.2572784496

                    Orbital Energies (a.u.)
 --------------------------------------------------------------

 Alpha MOs
 -- Occupied --
-20.546 -20.542 -15.639 -15.637 -15.626 -15.580 -15.573 -15.571
-15.560 -11.421 -11.381 -11.343 -11.330 -11.328 -11.327 -11.323
-11.262 -11.258 -11.232  -1.438  -1.400  -1.379  -1.312  -1.310
 -1.256  -1.245  -1.194  -1.163  -1.109  -1.043  -0.970  -0.919
 -0.903  -0.898  -0.887  -0.854  -0.785  -0.774  -0.770  -0.742
 -0.709  -0.703  -0.684  -0.681  -0.678  -0.645  -0.640  -0.632
 -0.618  -0.617  -0.602  -0.599  -0.567  -0.564  -0.555  -0.548
 -0.519  -0.504  -0.496  -0.483  -0.460  -0.449  -0.444  -0.423
 -0.419  -0.382  -0.351  -0.317

          Ground-State Mulliken Net Atomic Charges

     Atom                 Charge (a.u.)
  ----------------------------------------
      1 N                    -0.221951
      2 C                     0.151145
      3 H                     0.226324
      4 N                    -0.201570
      5 C                    -0.197943
      6 C                     0.041176
      7 N                    -0.263773
      8 H                     0.314597
      9 H                     0.310104
     10 N                    -0.137494
     11 C                    -0.145171
     12 H                     0.220356
     13 N                    -0.077656
     14 C                    -0.355234
     15 H                     0.387049
     16 N                    -0.277692
     17 C                    -0.878206
     18 H                     0.235099
     19 C                     1.386001
     20 C                    -0.561253
     21 H                     0.217186
     22 H                     0.181942
     23 H                     0.141097
     24 C                    -0.591090
     25 O                    -0.298252
     26 N                    -0.303501
     27 H                     0.430308
     28 C                     0.292522
     29 O                    -0.415165
     30 H                     0.391047
  ----------------------------------------
  Sum of atomic charges =    -0.000000

                    Cartesian Multipole Moments
 -----------------------------------------------------------------
    Charge (ESU x 10^10)
                -0.0000
    Dipole Moment (Debye)
         X      -1.3399      Y      -0.9246      Z      -3.3386
       Tot       3.7144
    Quadrupole Moments (Debye-Ang)
        XX    -117.1467     XY      -7.2676     YY    -106.2735
        XZ       3.5794     YZ       7.8282     ZZ    -109.8375

 Total job time:  2854.45s(wall), 2840.10s(cpu)
        *  Thank you very much for using Q-Chem.  Have a nice day.  *
