 Q-Chem 5.0, Q-Chem, Inc., Pleasanton, CA (2017)
 Q-Chem 5.0.2 for Intel X86 EM64T Linux

User input:
--------------------------------------------------------------
$rem
SCF_PRINT                     1
BASIS                         6-311++g**
SCF_SAVE_MATRICES             1
SCF_CONVERGENCE               5
SCF_FINAL_PRINT               1
METHOD                        hf
JOBTYPE                       sp
$end

$molecule
0 1
O    -0.778073626    0.205937567    -0.003744167
H    0.20462177    0.306150037    -0.005250247
C    -1.064673043    -1.099865265    -3.7626e-05
Cl    -2.818149715    -1.288073131    0.00234012
Cl    -0.388554792    -1.946140752    -1.447422763
Cl    -0.385461107    -1.938612521    1.450299192
$end

--------------------------------------------------------------

             Standard Nuclear Orientation (Angstroms)
    I     Atom           X                Y                Z
 ----------------------------------------------------------------
    1      O      -0.0818110728     0.0000666711     1.6412348047
    2      H       0.8437532110     0.0000098997     1.9862939329
    3      C      -0.0294657083     0.0000194794     0.3053703053
    4      Cl     -1.6786285946     0.0004539850    -0.3194255650
    5      Cl      0.8393539764     1.4486202270    -0.3387958641
    6      Cl      0.8385410665    -1.4491130441    -0.3387429357
 ----------------------------------------------------------------

    8   -1491.8375175428      4.47e-06  Convergence criterion met
 Total energy in the final basis set =    -1491.8375175428

                    Orbital Energies (a.u.)
 --------------------------------------------------------------

 Alpha MOs
 -- Occupied --
*******-104.865-104.865 -20.647 -11.504 -10.595 -10.592 -10.592
 -8.063  -8.060  -8.060  -8.060  -8.060  -8.057  -8.057  -8.057
 -8.057  -1.489  -1.216  -1.124  -1.117  -0.884  -0.756  -0.695
 -0.694  -0.586  -0.549  -0.513  -0.504  -0.490  -0.468  -0.465
 -0.454

          Ground-State Mulliken Net Atomic Charges

     Atom                 Charge (a.u.)
  ----------------------------------------
      1 O                    -0.012440
      2 H                     0.307971
      3 C                    -0.613412
      4 Cl                    0.183395
      5 Cl                    0.067243
      6 Cl                    0.067242
  ----------------------------------------
  Sum of atomic charges =     0.000000

                    Cartesian Multipole Moments
 -----------------------------------------------------------------
    Charge (ESU x 10^10)
                 0.0000
    Dipole Moment (Debye)
         X       1.2931      Y       0.0001      Z       1.0912
       Tot       1.6920
    Quadrupole Moments (Debye-Ang)
        XX     -48.4429     XY      -0.0001     YY     -50.9024
        XZ       4.0406     YZ      -0.0003     ZZ     -47.9821

 Total job time:  64.69s(wall), 61.63s(cpu)
        *  Thank you very much for using Q-Chem.  Have a nice day.  *
