 Q-Chem 5.0, Q-Chem, Inc., Pleasanton, CA (2017)
 Q-Chem 5.0.2 for Intel X86 EM64T Linux

User input:
--------------------------------------------------------------
$rem
SCF_PRINT                     1
BASIS                         6-311++g**
SCF_SAVE_MATRICES             1
SCF_CONVERGENCE               5
SCF_FINAL_PRINT               1
METHOD                        hf
JOBTYPE                       sp
$end

$molecule
0 1
C    -2.8509e-05    -0.000461929    2.158149022
Cl    -1.454063734    0.838777303    1.616235012
Cl    1.454144531    0.838659727    1.616208515
Cl    -8.74e-05    -1.679795034    1.617802938
H    5.696e-06    0.000267325    3.239305949
$end

--------------------------------------------------------------

             Standard Nuclear Orientation (Angstroms)
    I     Atom           X                Y                Z
 ----------------------------------------------------------------
    1      C       0.0000307450     0.0000093109     0.4574182408
    2      Cl      1.2780406735    -1.0889285622    -0.0839842430
    3      Cl     -1.5820925299    -0.5623230307    -0.0839801130
    4      Cl      0.3040410544     1.6512504459    -0.0839818121
    5      H      -0.0000008375    -0.0000363654     1.5385754128
 ----------------------------------------------------------------

    7   -1416.9605754691      9.45e-06  Convergence criterion met
 Total energy in the final basis set =    -1416.9605754691

                    Orbital Energies (a.u.)
 --------------------------------------------------------------

 Alpha MOs
 -- Occupied --
*******-104.867-104.867 -11.438 -10.594 -10.594 -10.594  -8.062
 -8.062  -8.062  -8.058  -8.058  -8.058  -8.058  -8.058  -8.058
 -1.250  -1.120  -1.120  -0.880  -0.688  -0.632  -0.631  -0.507
 -0.507  -0.472  -0.472  -0.469  -0.454

          Ground-State Mulliken Net Atomic Charges

     Atom                 Charge (a.u.)
  ----------------------------------------
      1 C                    -0.606322
      2 Cl                    0.122929
      3 Cl                    0.122866
      4 Cl                    0.122931
      5 H                     0.237596
  ----------------------------------------
  Sum of atomic charges =     0.000000

                    Cartesian Multipole Moments
 -----------------------------------------------------------------
    Charge (ESU x 10^10)
                 0.0000
    Dipole Moment (Debye)
         X       0.0003      Y       0.0002      Z       1.3249
       Tot       1.3249
    Quadrupole Moments (Debye-Ang)
        XX     -45.2934     XY      -0.0002     YY     -45.2928
        XZ      -0.0000     YZ      -0.0001     ZZ     -42.5257

 Total job time:  37.75s(wall), 37.18s(cpu)
        *  Thank you very much for using Q-Chem.  Have a nice day.  *
