 Q-Chem 5.0, Q-Chem, Inc., Pleasanton, CA (2017)
 Q-Chem 5.0.2 for Intel X86 EM64T Linux

User input:
--------------------------------------------------------------
$rem
SCF_PRINT                     1
BASIS                         6-311++g**
SCF_SAVE_MATRICES             1
SCF_CONVERGENCE               5
SCF_FINAL_PRINT               1
METHOD                        hf
JOBTYPE                       sp
$end

$molecule
0 1
O    -1.4663316    1.0121693    0.0
C    -0.6281464    1.9142678    0.0
N    0.7205093    1.6882688    0.0
C    1.636729    2.7052764    0.0
C    1.2769036    4.0061763    0.0
C    -0.1286005    4.3621549    0.0
N    -0.977723    3.2396433    0.0
O    -0.5972229    5.4864066    0.0
H    2.0103504    4.7938642    0.0
H    1.0232515    0.706182    0.0
H    -1.9700268    3.432385    0.0
H    2.669062    2.3883417    0.0
O    1.4663316    -1.0121693    0.0
C    0.6281464    -1.9142678    0.0
N    -0.7205093    -1.6882688    0.0
C    -1.636729    -2.7052764    0.0
C    -1.2769036    -4.0061763    0.0
C    0.1286005    -4.3621549    0.0
N    0.977723    -3.2396433    0.0
O    0.5972229    -5.4864066    0.0
H    -2.0103504    -4.7938642    0.0
H    -1.0232515    -0.706182    0.0
H    1.9700268    -3.432385    0.0
H    -2.669062    -2.3883417    0.0
$end

--------------------------------------------------------------

             Standard Nuclear Orientation (Angstroms)
    I     Atom           X                Y                Z
 ----------------------------------------------------------------
    1      O      -0.9998310088    -1.4747721881    -0.0000000000
    2      C      -1.9089302129    -0.6441851847    -0.0000000000
    3      N      -1.6942545206     0.7063191997     0.0000000000
    4      C      -2.7189134973     1.6139738579     0.0000000000
    5      C      -4.0167486386     1.2432464456     0.0000000000
    6      C      -4.3609223923    -0.1651948794     0.0000000000
    7      N      -3.2313260812    -1.0048695104    -0.0000000000
    8      O      -5.4812027338    -0.6432333667     0.0000000000
    9      H      -4.8105625043     1.9700586517     0.0000000000
   10      H      -0.7147423242     1.0172905481     0.0000000000
   11      H      -3.4157354713    -1.9987555055    -0.0000000000
   12      H      -2.4106513273     2.6489296355     0.0000000000
   13      O       0.9998310088     1.4747721881     0.0000000000
   14      C       1.9089302129     0.6441851847     0.0000000000
   15      N       1.6942545206    -0.7063191997    -0.0000000000
   16      C       2.7189134973    -1.6139738579    -0.0000000000
   17      C       4.0167486386    -1.2432464456    -0.0000000000
   18      C       4.3609223923     0.1651948794    -0.0000000000
   19      N       3.2313260812     1.0048695104     0.0000000000
   20      O       5.4812027338     0.6432333667    -0.0000000000
   21      H       4.8105625043    -1.9700586517    -0.0000000000
   22      H       0.7147423242    -1.0172905481    -0.0000000000
   23      H       3.4157354713     1.9987555055     0.0000000000
   24      H       2.4106513273    -2.6489296355    -0.0000000000
 ----------------------------------------------------------------

    9    -825.1813732530      3.95e-06  Convergence criterion met
 Total energy in the final basis set =     -825.1813732530

             Orbital Energies (a.u.) and Symmetries
 --------------------------------------------------------------

 Alpha MOs, Restricted
 -- Occupied --
-20.565 -20.565 -20.548 -20.548 -15.639 -15.639 -15.639 -15.639
  1 Bu    1 Ag    2 Ag    2 Bu    3 Bu    3 Ag    4 Ag    4 Bu
-11.438 -11.438 -11.390 -11.390 -11.342 -11.342 -11.259 -11.259
  5 Bu    5 Ag    6 Ag    6 Bu    7 Ag    7 Bu    8 Ag    8 Bu
 -1.455  -1.450  -1.408  -1.408  -1.326  -1.319  -1.257  -1.253
  9 Ag    9 Bu   10 Ag   10 Bu   11 Bu   11 Ag   12 Ag   12 Bu
 -1.095  -1.092  -0.941  -0.940  -0.920  -0.903  -0.819  -0.807
 13 Bu   13 Ag   14 Ag   14 Bu   15 Ag   15 Bu   16 Bu   16 Ag
 -0.775  -0.772  -0.727  -0.716  -0.707  -0.680  -0.676  -0.676
 17 Bu   17 Ag   18 Bu   18 Ag   19 Ag    1 Au   19 Bu    1 Bg
 -0.673  -0.655  -0.621  -0.618  -0.606  -0.603  -0.579  -0.576
 20 Bu   20 Ag   21 Bu   21 Ag   22 Ag   22 Bu    2 Au    2 Bg
 -0.533  -0.527  -0.511  -0.495  -0.457  -0.456  -0.451  -0.449
  3 Bg    3 Au   23 Ag   23 Bu   24 Ag   24 Bu    4 Au    4 Bg
 -0.373  -0.370
  5 Bg    5 Au

 Beta MOs, Restricted
 -- Occupied --
-20.565 -20.565 -20.548 -20.548 -15.639 -15.639 -15.639 -15.639
  1 Bu    1 Ag    2 Ag    2 Bu    3 Bu    3 Ag    4 Ag    4 Bu
-11.438 -11.438 -11.390 -11.390 -11.342 -11.342 -11.259 -11.259
  5 Bu    5 Ag    6 Ag    6 Bu    7 Ag    7 Bu    8 Ag    8 Bu
 -1.455  -1.450  -1.408  -1.408  -1.326  -1.319  -1.257  -1.253
  9 Ag    9 Bu   10 Ag   10 Bu   11 Bu   11 Ag   12 Ag   12 Bu
 -1.095  -1.092  -0.941  -0.940  -0.920  -0.903  -0.819  -0.807
 13 Bu   13 Ag   14 Ag   14 Bu   15 Ag   15 Bu   16 Bu   16 Ag
 -0.775  -0.772  -0.727  -0.716  -0.707  -0.680  -0.676  -0.676
 17 Bu   17 Ag   18 Bu   18 Ag   19 Ag    1 Au   19 Bu    1 Bg
 -0.673  -0.655  -0.621  -0.618  -0.606  -0.603  -0.579  -0.576
 20 Bu   20 Ag   21 Bu   21 Ag   22 Ag   22 Bu    2 Au    2 Bg
 -0.533  -0.527  -0.511  -0.495  -0.457  -0.456  -0.451  -0.449
  3 Bg    3 Au   23 Ag   23 Bu   24 Ag   24 Bu    4 Au    4 Bg
 -0.373  -0.370
  5 Bg    5 Au

          Ground-State Mulliken Net Atomic Charges

     Atom                 Charge (a.u.)
  ----------------------------------------
      1 O                    -0.493222
      2 C                     0.661382
      3 N                    -0.633874
      4 C                     0.145801
      5 C                    -0.142366
      6 C                    -0.011074
      7 N                    -0.639830
      8 O                    -0.395441
      9 H                     0.268575
     10 H                     0.610701
     11 H                     0.412269
     12 H                     0.217080
     13 O                    -0.493222
     14 C                     0.661382
     15 N                    -0.633874
     16 C                     0.145801
     17 C                    -0.142366
     18 C                    -0.011074
     19 N                    -0.639830
     20 O                    -0.395441
     21 H                     0.268575
     22 H                     0.610701
     23 H                     0.412269
     24 H                     0.217080
  ----------------------------------------
  Sum of atomic charges =    -0.000000

                    Cartesian Multipole Moments
 -----------------------------------------------------------------
    Charge (ESU x 10^10)
                -0.0000
    Dipole Moment (Debye)
         X       0.0000      Y       0.0000      Z       0.0000
       Tot       0.0000
    Quadrupole Moments (Debye-Ang)
        XX    -144.6862     XY     -17.8243     YY     -81.3225
        XZ      -0.0000     YZ       0.0000     ZZ     -93.7530

 Total job time:  619.30s(wall), 614.52s(cpu)
        *  Thank you very much for using Q-Chem.  Have a nice day.  *
