 Q-Chem 5.0, Q-Chem, Inc., Pleasanton, CA (2017)
 Q-Chem 5.0.2 for Intel X86 EM64T Linux

User input:
--------------------------------------------------------------
$rem
SCF_PRINT                     1
BASIS                         6-311++g**
SCF_SAVE_MATRICES             1
SCF_CONVERGENCE               5
SCF_FINAL_PRINT               1
METHOD                        hf
JOBTYPE                       sp
$end

$molecule
0 1
O    -0.778073626    0.205937567    -0.003744167
H    0.20462177    0.306150037    -0.005250247
C    -1.064673043    -1.099865265    -3.7626e-05
Cl    -2.818149715    -1.288073131    0.00234012
Cl    -0.388554792    -1.946140752    -1.447422763
Cl    -0.385461107    -1.938612521    1.450299192
O    1.949794791    0.377735879    -0.007230776
H    2.320041419    -0.082316123    -0.765476382
H    2.321048106    -0.079135932    0.75248655
$end

--------------------------------------------------------------

             Standard Nuclear Orientation (Angstroms)
    I     Atom           X                Y                Z
 ----------------------------------------------------------------
    1      O       0.3615975146     0.0000565298     1.3407758257
    2      H       1.3260729816     0.0001784489     1.1274167212
    3      C      -0.3204588212     0.0000179260     0.1909614261
    4      Cl     -2.0443730116     0.0001340311     0.5627518839
    5      Cl      0.0585381818     1.4487852978    -0.8217953059
    6      Cl      0.0583549240    -1.4489480760    -0.8216097420
    7      O       3.0054906180    -0.0000271354     0.6475066373
    8      H       3.2140259242     0.7589668991     0.0960468556
    9      H       3.2131073584    -0.7589993578     0.0956119500
 ----------------------------------------------------------------

    8   -1567.9040795838      3.47e-06  Convergence criterion met
 Total energy in the final basis set =    -1567.9040795838

                    Orbital Energies (a.u.)
 --------------------------------------------------------------

 Alpha MOs
 -- Occupied --
*******-104.858-104.858 -20.617 -20.612 -11.493 -10.585 -10.585
-10.585  -8.053  -8.053  -8.053  -8.050  -8.050  -8.050  -8.050
 -8.050  -8.050  -1.464  -1.406  -1.205  -1.115  -1.110  -0.867
 -0.767  -0.747  -0.678  -0.677  -0.642  -0.581  -0.554  -0.533
 -0.501  -0.494  -0.478  -0.460  -0.458  -0.447

          Ground-State Mulliken Net Atomic Charges

     Atom                 Charge (a.u.)
  ----------------------------------------
      1 O                    -0.129479
      2 H                     0.451888
      3 C                    -0.423136
      4 Cl                    0.308256
      5 Cl                   -0.120927
      6 Cl                   -0.120878
      7 O                    -0.497335
      8 H                     0.265819
      9 H                     0.265791
  ----------------------------------------
  Sum of atomic charges =    -0.000000

                    Cartesian Multipole Moments
 -----------------------------------------------------------------
    Charge (ESU x 10^10)
                -0.0000
    Dipole Moment (Debye)
         X       3.3125      Y       0.0005      Z      -1.6172
       Tot       3.6862
    Quadrupole Moments (Debye-Ang)
        XX     -46.6930     XY       0.0027     YY     -55.6378
        XZ      -4.3266     YZ       0.0012     ZZ     -60.9108

 Total job time:  126.21s(wall), 120.69s(cpu)
        *  Thank you very much for using Q-Chem.  Have a nice day.  *
