 Q-Chem 5.0, Q-Chem, Inc., Pleasanton, CA (2017)
 Q-Chem 5.0.2 for Intel X86 EM64T Linux

User input:
--------------------------------------------------------------
$rem
SCF_PRINT                     1
BASIS                         6-311++g**
SCF_SAVE_MATRICES             1
SCF_CONVERGENCE               5
SCF_FINAL_PRINT               1
METHOD                        hf
JOBTYPE                       sp
$end

$molecule
0 1
F    -2.268328468    -1.958202889    -0.323025092
F    -2.703690585    0.725550383    -0.25311904
C    0.039970416    -1.620649062    0.000627529
C    -1.246714568    -1.122331457    -0.158188956
C    -1.468960632    0.248281616    -0.123448223
C    -0.404843176    1.120110725    0.068321788
C    0.88286916    0.622303553    0.223239994
C    1.104164281    -0.748842052    0.192245986
F    -0.620157741    2.430732722    0.113060107
F    1.901232288    1.45642417    0.399377483
F    0.250821528    -2.933836485    -0.010169125
F    2.333223855    -1.227390582    0.354782679
$end

--------------------------------------------------------------

             Standard Nuclear Orientation (Angstroms)
    I     Atom           X                Y                Z
 ----------------------------------------------------------------
    1      F       0.8665059943    -2.5775301394    -0.0001939389
    2      F      -1.7991800127    -2.0380876962     0.0086726321
    3      C       1.3611144796    -0.2748785050    -0.0099530342
    4      C       0.4425983293    -1.3167109686    -0.0137686607
    5      C      -0.9187596438    -1.0412618930    -0.0102044882
    6      C      -1.3612882084     0.2753033152    -0.0045287075
    7      C      -0.4429139181     1.3177059783    -0.0047339417
    8      C       0.9186324611     1.0417280844    -0.0044366786
    9      F      -2.6639696969     0.5377573966     0.0106598738
   10      F      -0.8662519205     2.5765254741    -0.0066026721
   11      F       2.6648416753    -0.5374915294     0.0091719632
   12      F       1.7984649607     2.0375691536     0.0100424825
 ----------------------------------------------------------------

    7    -823.9836419653      7.94e-06  Convergence criterion met
 Total energy in the final basis set =     -823.9836419653

                    Orbital Energies (a.u.)
 --------------------------------------------------------------

 Alpha MOs
 -- Occupied --
-26.368 -26.367 -26.367 -26.367 -26.367 -26.367 -11.401 -11.400
-11.400 -11.399 -11.399 -11.398  -1.702  -1.695  -1.695  -1.681
 -1.681  -1.674  -1.243  -1.099  -1.099  -0.949  -0.949  -0.869
 -0.844  -0.835  -0.785  -0.783  -0.783  -0.783  -0.783  -0.758
 -0.758  -0.734  -0.734  -0.726  -0.714  -0.714  -0.704  -0.647
 -0.647  -0.612  -0.551  -0.398  -0.398

          Ground-State Mulliken Net Atomic Charges

     Atom                 Charge (a.u.)
  ----------------------------------------
      1 F                    -0.265210
      2 F                    -0.264966
      3 C                     0.263112
      4 C                     0.265623
      5 C                     0.263176
      6 C                     0.265791
      7 C                     0.265607
      8 C                     0.265891
      9 F                    -0.264541
     10 F                    -0.264992
     11 F                    -0.264920
     12 F                    -0.264572
  ----------------------------------------
  Sum of atomic charges =    -0.000000

                    Cartesian Multipole Moments
 -----------------------------------------------------------------
    Charge (ESU x 10^10)
                -0.0000
    Dipole Moment (Debye)
         X      -0.0062      Y       0.0196      Z      -0.0439
       Tot       0.0485
    Quadrupole Moments (Debye-Ang)
        XX     -71.8923     XY      -0.0104     YY     -71.8612
        XZ      -0.0097     YZ       0.0308     ZZ     -60.6263

 Total job time:  286.71s(wall), 273.76s(cpu)
        *  Thank you very much for using Q-Chem.  Have a nice day.  *
