 Q-Chem 5.0, Q-Chem, Inc., Pleasanton, CA (2017)
 Q-Chem 5.0.2 for Intel X86 EM64T Linux

User input:
--------------------------------------------------------------
$rem
SCF_PRINT                     1
BASIS                         6-311++g**
SCF_SAVE_MATRICES             1
SCF_CONVERGENCE               5
SCF_FINAL_PRINT               1
METHOD                        hf
JOBTYPE                       sp
$end

$molecule
0 1
O    1.949794791    0.377735879    -0.007230776
H    2.320041419    -0.082316123    -0.765476382
H    2.321048106    -0.079135932    0.75248655
$end

--------------------------------------------------------------

             Standard Nuclear Orientation (Angstroms)
    I     Atom           X                Y                Z
 ----------------------------------------------------------------
    1      O      -0.0000082132    -0.1179225849    -0.0000000000
    2      H      -0.7589504455     0.4717158611     0.0000000000
    3      H       0.7590161507     0.4716648183     0.0000000000
 ----------------------------------------------------------------

    7     -76.0525517004      8.37e-06  Convergence criterion met
 Total energy in the final basis set =      -76.0525517004

             Orbital Energies (a.u.) and Symmetries
 --------------------------------------------------------------

 Alpha MOs, Restricted
 -- Occupied --
-20.567  -1.354  -0.718  -0.584  -0.510
  1 A'    2 A'    3 A'    4 A'    1 A"

 Beta MOs, Restricted
 -- Occupied --
-20.567  -1.354  -0.718  -0.584  -0.510
  1 A'    2 A'    3 A'    4 A'    1 A"

          Ground-State Mulliken Net Atomic Charges

     Atom                 Charge (a.u.)
  ----------------------------------------
      1 O                    -0.511598
      2 H                     0.255797
      3 H                     0.255801
  ----------------------------------------
  Sum of atomic charges =     0.000000

                    Cartesian Multipole Moments
 -----------------------------------------------------------------
    Charge (ESU x 10^10)
                -0.0000
    Dipole Moment (Debye)
         X       0.0001      Y       2.2462      Z      -0.0000
       Tot       2.2462
    Quadrupole Moments (Debye-Ang)
        XX      -4.2507     XY      -0.0000     YY      -6.2883
        XZ      -0.0000     YZ      -0.0000     ZZ      -7.5685

 Total job time:  1.39s(wall), 1.18s(cpu)
        *  Thank you very much for using Q-Chem.  Have a nice day.  *
