 Q-Chem 5.0, Q-Chem, Inc., Pleasanton, CA (2017)
 Q-Chem 5.0.2 for Intel X86 EM64T Linux

User input:
--------------------------------------------------------------
$rem
SCF_PRINT                     1
BASIS                         6-311++g**
SCF_SAVE_MATRICES             1
SCF_CONVERGENCE               5
SCF_FINAL_PRINT               1
METHOD                        hf
JOBTYPE                       sp
$end

$molecule
0 1
C    0.017128682    -0.009767481    -1.680303942
H    -0.063241616    0.035668447    -2.761803854
H    -0.841686927    -0.534736175    -1.274267671
H    0.927869926    -0.535377764    -1.409431408
H    0.042730234    0.99699675    -1.275640625
$end

--------------------------------------------------------------

             Standard Nuclear Orientation (Angstroms)
    I     Atom           X                Y                Z
 ----------------------------------------------------------------
    1      C       0.0002841308    -0.0001625884     0.0000014017
    2      H       0.4788997829     0.9740514106    -0.0000967870
    3      H      -0.6220097996    -0.0989135036    -0.8837521581
    4      H       0.7615263170    -0.7744989207    -0.0011348788
    5      H      -0.6201210850    -0.0996634556     0.8849754138
 ----------------------------------------------------------------

    6     -40.2091414643      6.65e-06  Convergence criterion met
 Total energy in the final basis set =      -40.2091414643

                    Orbital Energies (a.u.)
 --------------------------------------------------------------

 Alpha MOs
 -- Occupied --
-11.206  -0.945  -0.547  -0.545  -0.545

          Ground-State Mulliken Net Atomic Charges

     Atom                 Charge (a.u.)
  ----------------------------------------
      1 C                    -0.468522
      2 H                     0.117144
      3 H                     0.117161
      4 H                     0.117053
      5 H                     0.117164
  ----------------------------------------
  Sum of atomic charges =    -0.000000

                    Cartesian Multipole Moments
 -----------------------------------------------------------------
    Charge (ESU x 10^10)
                -0.0000
    Dipole Moment (Debye)
         X      -0.0013      Y       0.0009      Z       0.0000
       Tot       0.0016
    Quadrupole Moments (Debye-Ang)
        XX      -8.4063     XY       0.0003     YY      -8.4262
        XZ      -0.0000     YZ      -0.0000     ZZ      -8.4326

 Total job time:  1.91s(wall), 1.84s(cpu)
        *  Thank you very much for using Q-Chem.  Have a nice day.  *
