 Q-Chem 5.0, Q-Chem, Inc., Pleasanton, CA (2017)
 Q-Chem 5.0.2 for Intel X86 EM64T Linux

User input:
--------------------------------------------------------------
$rem
SCF_PRINT                     1
BASIS                         6-311++g**
SCF_SAVE_MATRICES             1
SCF_CONVERGENCE               5
SCF_FINAL_PRINT               1
METHOD                        hf
JOBTYPE                       sp
$end

$molecule
0 1
N    -1.578718    -0.046611    0.0
H    -2.158621    0.136396    -0.809565
H    -2.158621    0.136396    0.809565
H    -0.849471    0.658193    0.0
N    1.578718    0.046611    0.0
H    2.158621    -0.136396    -0.809565
H    0.849471    -0.658193    0.0
H    2.158621    -0.136396    0.809565
$end

--------------------------------------------------------------

             Standard Nuclear Orientation (Angstroms)
    I     Atom           X                Y                Z
 ----------------------------------------------------------------
    1      N       1.5771934426     0.0835700510    -0.0000000000
    2      H       2.1612232205    -0.0858060687    -0.8095650000
    3      H       2.1612232205    -0.0858060687     0.8095650000
    4      H       0.8646521783    -0.6381188100     0.0000000000
    5      N      -1.5771934426    -0.0835700510     0.0000000000
    6      H      -2.1612232205     0.0858060687    -0.8095650000
    7      H      -0.8646521783     0.6381188100    -0.0000000000
    8      H      -2.1612232205     0.0858060687     0.8095650000
 ----------------------------------------------------------------

    7    -112.4316474000      5.70e-06  Convergence criterion met
 Total energy in the final basis set =     -112.4316474000

             Orbital Energies (a.u.) and Symmetries
 --------------------------------------------------------------

 Alpha MOs, Restricted
 -- Occupied --
-15.535 -15.535  -1.142  -1.134  -0.642  -0.625  -0.623  -0.606
  1 Bu    1 Ag    2 Ag    2 Bu    3 Ag    1 Au    1 Bg    3 Bu
 -0.427  -0.423
  4 Bu    4 Ag

 Beta MOs, Restricted
 -- Occupied --
-15.535 -15.535  -1.142  -1.134  -0.642  -0.625  -0.623  -0.606
  1 Bu    1 Ag    2 Ag    2 Bu    3 Ag    1 Au    1 Bg    3 Bu
 -0.427  -0.423
  4 Bu    4 Ag

          Ground-State Mulliken Net Atomic Charges

     Atom                 Charge (a.u.)
  ----------------------------------------
      1 N                    -0.746748
      2 H                     0.229132
      3 H                     0.229132
      4 H                     0.288484
      5 N                    -0.746748
      6 H                     0.229132
      7 H                     0.288484
      8 H                     0.229132
  ----------------------------------------
  Sum of atomic charges =    -0.000000

                    Cartesian Multipole Moments
 -----------------------------------------------------------------
    Charge (ESU x 10^10)
                -0.0000
    Dipole Moment (Debye)
         X       0.0000      Y      -0.0000      Z      -0.0000
       Tot       0.0000
    Quadrupole Moments (Debye-Ang)
        XX      -9.3054     XY      -3.4926     YY     -17.5928
        XZ      -0.0000     YZ      -0.0000     ZZ     -12.4792

 Total job time:  3.22s(wall), 3.02s(cpu)
        *  Thank you very much for using Q-Chem.  Have a nice day.  *
