 Q-Chem 5.0, Q-Chem, Inc., Pleasanton, CA (2017)
 Q-Chem 5.0.2 for Intel X86 EM64T Linux

User input:
--------------------------------------------------------------
$rem
SCF_PRINT                     1
BASIS                         6-311++g**
SCF_SAVE_MATRICES             1
SCF_CONVERGENCE               5
SCF_FINAL_PRINT               1
METHOD                        hf
JOBTYPE                       sp
$end

$molecule
0 1
C    0.052125307    -0.031919514    1.840660293
Cl    -1.491715802    0.847207403    1.755184684
H    0.81190911    0.554725768    1.338264649
H    -0.067811208    -0.989274688    1.347792712
H    0.311197296    -0.173143788    2.883203118
$end

--------------------------------------------------------------

             Standard Nuclear Orientation (Angstroms)
    I     Atom           X                Y                Z
 ----------------------------------------------------------------
    1      C       1.1231382412     0.0003393106    -0.0000072030
    2      Cl     -0.6555172726    -0.0000465025     0.0000012653
    3      H       1.4686242263    -0.5201487143    -0.8851948370
    4      H       1.4686517775    -0.5086651399     0.8918263100
    5      H       1.4676881842     1.0275685333    -0.0066097645
 ----------------------------------------------------------------

    7    -499.1325342993      6.20e-06  Convergence criterion met
 Total energy in the final basis set =     -499.1325342993

                    Orbital Energies (a.u.)
 --------------------------------------------------------------

 Alpha MOs
 -- Occupied --
******* -11.292 -10.550  -8.019  -8.016  -8.016  -1.131  -0.918
 -0.621  -0.621  -0.548  -0.436  -0.436

          Ground-State Mulliken Net Atomic Charges

     Atom                 Charge (a.u.)
  ----------------------------------------
      1 C                    -0.524053
      2 Cl                    0.028547
      3 H                     0.165240
      4 H                     0.165243
      5 H                     0.165023
  ----------------------------------------
  Sum of atomic charges =     0.000000

                    Cartesian Multipole Moments
 -----------------------------------------------------------------
    Charge (ESU x 10^10)
                 0.0000
    Dipole Moment (Debye)
         X       2.2480      Y      -0.0006      Z       0.0000
       Tot       2.2480
    Quadrupole Moments (Debye-Ang)
        XX     -18.3665     XY      -0.0027     YY     -20.1112
        XZ       0.0001     YZ       0.0000     ZZ     -20.1220

 Total job time:  8.65s(wall), 8.12s(cpu)
        *  Thank you very much for using Q-Chem.  Have a nice day.  *
