 Q-Chem 5.0, Q-Chem, Inc., Pleasanton, CA (2017)
 Q-Chem 5.0.2 for Intel X86 EM64T Linux

User input:
--------------------------------------------------------------
$rem
SCF_PRINT                     1
BASIS                         6-311++g**
SCF_SAVE_MATRICES             1
SCF_CONVERGENCE               5
SCF_FINAL_PRINT               1
METHOD                        hf
JOBTYPE                       sp
$end

$molecule
0 1
H    -1.719265622    -1.313070599    3.23511468
H    -2.117120419    1.131566386    3.250807086
C    0.409478083    -1.12597989    3.47677448
C    -0.887013607    -0.630037228    3.342089837
C    -1.111190459    0.746396788    3.352790675
C    -0.039417816    1.626442678    3.499615551
C    1.256371149    1.130100736    3.634840523
C    1.481108571    -0.245785431    3.623479226
H    -0.21365013    2.693766913    3.507370558
H    2.087582706    1.812593825    3.746420458
H    0.583630925    -2.193775854    3.470689289
H    2.486380394    -0.630785067    3.727095469
$end

--------------------------------------------------------------

             Standard Nuclear Orientation (Angstroms)
    I     Atom           X                Y                Z
 ----------------------------------------------------------------
    1      H       0.5377683318    -2.4175029764     0.0054462054
    2      H      -1.8248537025    -1.6740060070     0.0016966880
    3      C       1.3302024198    -0.4182627535    -0.0007909029
    4      C       0.3028223249    -1.3613851750    -0.0006570833
    5      C      -1.0274578435    -0.9427027352    -0.0008965281
    6      C      -1.3301631047     0.4185845820     0.0002330273
    7      C      -0.3027259606     1.3609660495     0.0007260528
    8      C       1.0272974411     0.9429514102     0.0002315381
    9      H      -2.3618921139     0.7428265472    -0.0004463792
   10      H      -0.5375288121     2.4164399802    -0.0006715611
   11      H       2.3623631849    -0.7425975362     0.0015684147
   12      H       1.8242914503     1.6739317248    -0.0006699907
 ----------------------------------------------------------------

    6    -230.7562777067      6.42e-06  Convergence criterion met
 Total energy in the final basis set =     -230.7562777067

                    Orbital Energies (a.u.)
 --------------------------------------------------------------

 Alpha MOs
 -- Occupied --
-11.239 -11.238 -11.238 -11.237 -11.237 -11.236  -1.152  -1.017
 -1.017  -0.826  -0.826  -0.711  -0.645  -0.621  -0.590  -0.590
 -0.502  -0.496  -0.496  -0.337  -0.337

          Ground-State Mulliken Net Atomic Charges

     Atom                 Charge (a.u.)
  ----------------------------------------
      1 H                     0.192811
      2 H                     0.192776
      3 C                    -0.191698
      4 C                    -0.193971
      5 C                    -0.191716
      6 C                    -0.193492
      7 C                    -0.191888
      8 C                    -0.193497
      9 H                     0.192676
     10 H                     0.192565
     11 H                     0.192765
     12 H                     0.192670
  ----------------------------------------
  Sum of atomic charges =    -0.000000

                    Cartesian Multipole Moments
 -----------------------------------------------------------------
    Charge (ESU x 10^10)
                -0.0000
    Dipole Moment (Debye)
         X      -0.0002      Y       0.0010      Z       0.0060
       Tot       0.0061
    Quadrupole Moments (Debye-Ang)
        XX     -31.9152     XY       0.0005     YY     -31.9188
        XZ       0.0045     YZ      -0.0246     ZZ     -41.3169

 Total job time:  97.42s(wall), 87.84s(cpu)
        *  Thank you very much for using Q-Chem.  Have a nice day.  *
