 Q-Chem 5.0, Q-Chem, Inc., Pleasanton, CA (2017)
 Q-Chem 5.0.2 for Intel X86 EM64T Linux

User input:
--------------------------------------------------------------
$rem
SCF_PRINT                     1
BASIS                         6-311++g**
SCF_SAVE_MATRICES             1
SCF_CONVERGENCE               5
SCF_FINAL_PRINT               1
METHOD                        hf
JOBTYPE                       sp
$end

$molecule
0 1
C    0.250211388    -0.141261283    2.278305952
F    0.055015573    -0.060688554    0.911538424
H    1.18931025    0.342978795    2.531275149
H    0.282891774    -1.187166859    2.570525524
H    -0.571443596    0.358513497    2.783864006
$end

--------------------------------------------------------------

             Standard Nuclear Orientation (Angstroms)
    I     Atom           X                Y                Z
 ----------------------------------------------------------------
    1      C      -0.6324246055     0.0000145863    -0.0000042038
    2      F       0.7505601541    -0.0000116229     0.0000128992
    3      H      -0.9867573176    -0.4216172003    -0.9365208914
    4      H      -0.9867464741     1.0218782133     0.1030952680
    5      H      -0.9869899622    -0.6002439245     0.8333347533
 ----------------------------------------------------------------

    7    -139.0829017664      9.62e-06  Convergence criterion met
 Total energy in the final basis set =     -139.0829017664

                    Orbital Energies (a.u.)
 --------------------------------------------------------------

 Alpha MOs
 -- Occupied --
-26.278 -11.308  -1.588  -0.959  -0.697  -0.697  -0.676  -0.533
 -0.533

          Ground-State Mulliken Net Atomic Charges

     Atom                 Charge (a.u.)
  ----------------------------------------
      1 C                    -0.134969
      2 F                    -0.247607
      3 H                     0.127528
      4 H                     0.127529
      5 H                     0.127519
  ----------------------------------------
  Sum of atomic charges =     0.000000

                    Cartesian Multipole Moments
 -----------------------------------------------------------------
    Charge (ESU x 10^10)
                 0.0000
    Dipole Moment (Debye)
         X      -2.2488      Y       0.0000      Z      -0.0000
       Tot       2.2488
    Quadrupole Moments (Debye-Ang)
        XX     -12.6747     XY       0.0001     YY     -11.7443
        XZ      -0.0001     YZ       0.0000     ZZ     -11.7446

 Total job time:  4.71s(wall), 4.31s(cpu)
        *  Thank you very much for using Q-Chem.  Have a nice day.  *
