 Q-Chem 5.0, Q-Chem, Inc., Pleasanton, CA (2017)
 Q-Chem 5.0.2 for Intel X86 EM64T Linux

User input:
--------------------------------------------------------------
$rem
SCF_PRINT                     1
BASIS                         6-311++g**
SCF_SAVE_MATRICES             1
SCF_CONVERGENCE               5
SCF_FINAL_PRINT               1
METHOD                        hf
JOBTYPE                       sp
$end

$molecule
0 1
N    2.0113587    -1.2132073    -0.0980673
C    2.0257076    -0.6971797    -1.3644029
H    2.2975208    -1.3910592    -2.1456459
C    1.7145226    0.5919651    -1.6124892
H    1.7272873    0.9908466    -2.612005
C    1.3089605    1.457534    -0.520589
O    0.9205926    2.6110864    -0.6260457
N    1.3768885    0.8397454    0.7346356
H    1.051804    1.3862229    1.523371
C    1.6459909    -0.4852113    1.0187267
O    1.561109    -0.9718061    2.1298059
H    2.1294635    -2.2015046    0.0568134
N    -2.0113587    1.2132073    -0.0980673
C    -2.0257076    0.6971797    -1.3644029
H    -2.2975208    1.3910592    -2.1456459
C    -1.7145226    -0.5919651    -1.6124892
H    -1.7272873    -0.9908466    -2.612005
C    -1.3089605    -1.457534    -0.520589
O    -0.9205926    -2.6110864    -0.6260457
N    -1.3768885    -0.8397454    0.7346356
H    -1.051804    -1.3862229    1.523371
C    -1.6459909    0.4852113    1.0187267
O    -1.561109    0.9718061    2.1298059
H    -2.1294635    2.2015046    0.0568134
$end

--------------------------------------------------------------

             Standard Nuclear Orientation (Angstroms)
    I     Atom           X                Y                Z
 ----------------------------------------------------------------
    1      N      -2.0722555537     1.1059804217    -0.0711029345
    2      C      -2.0595038150     0.5899108837    -1.3374385345
    3      H      -2.3673569001     1.2685696007    -2.1186815345
    4      C      -1.6810939642    -0.6811266470    -1.5855248345
    5      H      -1.6729079763    -1.0801283741    -2.5850406345
    6      C      -1.2306661124    -1.5242191022    -0.4936246345
    7      O      -0.7822955396    -2.6558005596    -0.5990813345
    8      N      -1.3309217392    -0.9108466405     0.7615999655
    9      H      -0.9776063438    -1.4395108264     1.5503353655
   10      C      -1.6691863701     0.3981619149     1.0456910655
   11      O      -1.6099576847     0.8885407472     2.1567702655
   12      H      -2.2420629449     2.0867177702     0.0837777655
   13      N       2.0722555537    -1.1059804217    -0.0711029345
   14      C       2.0595038150    -0.5899108837    -1.3374385345
   15      H       2.3673569001    -1.2685696007    -2.1186815345
   16      C       1.6810939642     0.6811266470    -1.5855248345
   17      H       1.6729079763     1.0801283741    -2.5850406345
   18      C       1.2306661124     1.5242191022    -0.4936246345
   19      O       0.7822955396     2.6558005596    -0.5990813345
   20      N       1.3309217392     0.9108466405     0.7615999655
   21      H       0.9776063438     1.4395108264     1.5503353655
   22      C       1.6691863701    -0.3981619149     1.0456910655
   23      O       1.6099576847    -0.8885407472     2.1567702655
   24      H       2.2420629449    -2.0867177702     0.0837777655
 ----------------------------------------------------------------

    9    -825.1589336780      4.02e-06  Convergence criterion met
 Total energy in the final basis set =     -825.1589336780

             Orbital Energies (a.u.) and Symmetries
 --------------------------------------------------------------

 Alpha MOs, Restricted
 -- Occupied --
-20.551 -20.551 -20.550 -20.550 -15.646 -15.646 -15.632 -15.632
  1 B     1 A     2 A     2 B     3 A     3 B     4 B     4 A
-11.426 -11.426 -11.392 -11.392 -11.346 -11.346 -11.260 -11.260
  5 B     5 A     6 B     6 A     7 B     7 A     8 A     8 B
 -1.446  -1.441  -1.408  -1.408  -1.319  -1.319  -1.254  -1.252
  9 A     9 B    10 B    10 A    11 B    11 A    12 A    12 B
 -1.096  -1.093  -0.940  -0.939  -0.908  -0.908  -0.812  -0.811
 13 A    13 B    14 B    14 A    15 B    15 A    16 A    16 B
 -0.772  -0.771  -0.719  -0.719  -0.694  -0.685  -0.683  -0.659
 17 A    17 B    18 A    18 B    19 A    20 A    19 B    20 B
 -0.658  -0.653  -0.621  -0.621  -0.608  -0.607  -0.590  -0.570
 21 A    21 B    22 B    22 A    23 A    23 B    24 B    24 A
 -0.535  -0.519  -0.489  -0.487  -0.457  -0.456  -0.444  -0.442
 25 A    25 B    26 A    26 B    27 A    27 B    28 A    28 B
 -0.384  -0.361
 29 A    29 B

 Beta MOs, Restricted
 -- Occupied --
-20.551 -20.551 -20.550 -20.550 -15.646 -15.646 -15.632 -15.632
  1 B     1 A     2 A     2 B     3 A     3 B     4 B     4 A
-11.426 -11.426 -11.392 -11.392 -11.346 -11.346 -11.260 -11.260
  5 B     5 A     6 B     6 A     7 B     7 A     8 A     8 B
 -1.446  -1.441  -1.408  -1.408  -1.319  -1.319  -1.254  -1.252
  9 A     9 B    10 B    10 A    11 B    11 A    12 A    12 B
 -1.096  -1.093  -0.940  -0.939  -0.908  -0.908  -0.812  -0.811
 13 A    13 B    14 B    14 A    15 B    15 A    16 A    16 B
 -0.772  -0.771  -0.719  -0.719  -0.694  -0.685  -0.683  -0.659
 17 A    17 B    18 A    18 B    19 A    20 A    19 B    20 B
 -0.658  -0.653  -0.621  -0.621  -0.608  -0.607  -0.590  -0.570
 21 A    21 B    22 B    22 A    23 A    23 B    24 B    24 A
 -0.535  -0.519  -0.489  -0.487  -0.457  -0.456  -0.444  -0.442
 25 A    25 B    26 A    26 B    27 A    27 B    28 A    28 B
 -0.384  -0.361
 29 A    29 B

          Ground-State Mulliken Net Atomic Charges

     Atom                 Charge (a.u.)
  ----------------------------------------
      1 N                    -0.361916
      2 C                    -0.228066
      3 H                     0.236082
      4 C                     0.286827
      5 H                     0.257228
      6 C                    -0.145242
      7 O                    -0.345553
      8 N                    -0.382363
      9 H                     0.465075
     10 C                     0.171559
     11 O                    -0.367688
     12 H                     0.414058
     13 N                    -0.361916
     14 C                    -0.228066
     15 H                     0.236082
     16 C                     0.286827
     17 H                     0.257228
     18 C                    -0.145242
     19 O                    -0.345553
     20 N                    -0.382363
     21 H                     0.465075
     22 C                     0.171559
     23 O                    -0.367688
     24 H                     0.414058
  ----------------------------------------
  Sum of atomic charges =     0.000000

                    Cartesian Multipole Moments
 -----------------------------------------------------------------
    Charge (ESU x 10^10)
                 0.0000
    Dipole Moment (Debye)
         X      -0.0000      Y      -0.0000      Z      -5.8711
       Tot       5.8711
    Quadrupole Moments (Debye-Ang)
        XX     -82.6874     XY     -10.8523     YY    -105.9947
        XZ       0.0000     YZ      -0.0000     ZZ     -97.1750

 Total job time:  957.25s(wall), 949.38s(cpu)
        *  Thank you very much for using Q-Chem.  Have a nice day.  *
