 Q-Chem 5.0, Q-Chem, Inc., Pleasanton, CA (2017)
 Q-Chem 5.0.2 for Intel X86 EM64T Linux

User input:
--------------------------------------------------------------
$rem
SCF_PRINT                     1
BASIS                         6-311++g**
SCF_SAVE_MATRICES             1
SCF_CONVERGENCE               5
SCF_FINAL_PRINT               1
METHOD                        hf
JOBTYPE                       sp
$end

$molecule
0 1
H    1.101371146    -0.000117739    -0.587770996
O    0.397090227    -2.7546e-05    0.067866526
C    1.005829292    1.3334e-05    1.347930653
H    0.205003605    -4.3e-07    2.081297025
H    1.620180682    -0.886685805    1.514496095
H    1.620127834    0.886756142    1.514470494
Cl    1.5347557    -2.78e-07    -3.014973713
C    -0.250343184    1.1724e-05    -3.026056648
H    -0.580143384    1.8132e-05    -4.057685667
H    -0.592367277    -0.887056056    -2.508114642
H    -0.592357482    0.887077343    -2.508105102
$end

--------------------------------------------------------------

             Standard Nuclear Orientation (Angstroms)
    I     Atom           X                Y                Z
 ----------------------------------------------------------------
    1      H       0.8941574414    -0.2793624385     0.0001142095
    2      O       1.5571562257     0.4179931273     0.0000245467
    3      C       2.8307558360    -0.2041575384    -0.0000191014
    4      H       3.5724932428     0.5889210428    -0.0000047194
    5      H       2.9908603278    -0.8202262738     0.8866786514
    6      H       2.9908331010    -0.8201697367    -0.8867632954
    7      Cl     -1.5374634467    -0.6872289095    -0.0000010465
    8      C      -1.5297959460     1.0978879120    -0.0000096124
    9      H      -2.5579039933     1.4385056566    -0.0000140978
   10      H      -1.0082889625     1.4344512106     0.8870581755
   11      H      -1.0082817091     1.4344447404    -0.8870752235
 ----------------------------------------------------------------

    7    -614.2148172139      8.18e-06  Convergence criterion met
 Total energy in the final basis set =     -614.2148172139

                    Orbital Energies (a.u.)
 --------------------------------------------------------------

 Alpha MOs
 -- Occupied --
******* -20.553 -11.290 -11.269 -10.557  -8.025  -8.022  -8.022
 -1.357  -1.135  -0.925  -0.918  -0.692  -0.623  -0.621  -0.616
 -0.589  -0.550  -0.504  -0.448  -0.444  -0.442

          Ground-State Mulliken Net Atomic Charges

     Atom                 Charge (a.u.)
  ----------------------------------------
      1 H                     0.250931
      2 O                    -0.381400
      3 C                    -0.226454
      4 H                     0.124662
      5 H                     0.112018
      6 H                     0.112028
      7 Cl                    0.021766
      8 C                    -0.605833
      9 H                     0.190792
     10 H                     0.200746
     11 H                     0.200745
  ----------------------------------------
  Sum of atomic charges =     0.000000

                    Cartesian Multipole Moments
 -----------------------------------------------------------------
    Charge (ESU x 10^10)
                 0.0000
    Dipole Moment (Debye)
         X       0.2894      Y       0.4516      Z       0.0001
       Tot       0.5364
    Quadrupole Moments (Debye-Ang)
        XX     -29.9052     XY      -6.0381     YY     -32.3689
        XZ       0.0000     YZ      -0.0002     ZZ     -33.8361

 Total job time:  51.42s(wall), 50.13s(cpu)
        *  Thank you very much for using Q-Chem.  Have a nice day.  *
