 Q-Chem 5.0, Q-Chem, Inc., Pleasanton, CA (2017)
 Q-Chem 5.0.2 for Intel X86 EM64T Linux

User input:
--------------------------------------------------------------
$rem
SCF_PRINT                     1
BASIS                         6-311++g**
SCF_SAVE_MATRICES             1
SCF_CONVERGENCE               5
SCF_FINAL_PRINT               1
METHOD                        hf
JOBTYPE                       sp
$end

$molecule
0 1
C    0.00591865    -0.003496527    1.853878993
F    -1.172542855    0.674817567    1.614587488
H    0.830709843    0.546048289    1.407962789
H    -0.056058041    -0.993747823    1.41035538
H    0.156078035    -0.088328739    2.927069055
$end

--------------------------------------------------------------

             Standard Nuclear Orientation (Angstroms)
    I     Atom           X                Y                Z
 ----------------------------------------------------------------
    1      C       0.6309080404     0.0002689144    -0.0000051576
    2      F      -0.7497229020    -0.0001236553     0.0000020224
    3      H       0.9877832752    -0.5159335436    -0.8873023835
    4      H       0.9878030685    -0.5119925891     0.8895824017
    5      H       0.9864715318     1.0274255435    -0.0022672741
 ----------------------------------------------------------------

    7    -139.0829329504      9.55e-06  Convergence criterion met
 Total energy in the final basis set =     -139.0829329504

                    Orbital Energies (a.u.)
 --------------------------------------------------------------

 Alpha MOs
 -- Occupied --
-26.279 -11.308  -1.589  -0.958  -0.697  -0.697  -0.677  -0.533
 -0.533

          Ground-State Mulliken Net Atomic Charges

     Atom                 Charge (a.u.)
  ----------------------------------------
      1 C                    -0.136139
      2 F                    -0.245556
      3 H                     0.127233
      4 H                     0.127231
      5 H                     0.127232
  ----------------------------------------
  Sum of atomic charges =    -0.000000

                    Cartesian Multipole Moments
 -----------------------------------------------------------------
    Charge (ESU x 10^10)
                 0.0000
    Dipole Moment (Debye)
         X       2.2359      Y      -0.0003      Z      -0.0000
       Tot       2.2359
    Quadrupole Moments (Debye-Ang)
        XX     -12.6729     XY      -0.0022     YY     -11.7453
        XZ       0.0000     YZ       0.0000     ZZ     -11.7537

 Total job time:  4.77s(wall), 4.29s(cpu)
        *  Thank you very much for using Q-Chem.  Have a nice day.  *
