 Q-Chem 5.0, Q-Chem, Inc., Pleasanton, CA (2017)
 Q-Chem 5.0.2 for Intel X86 EM64T Linux

User input:
--------------------------------------------------------------
$rem
SCF_PRINT                     1
BASIS                         6-311++g**
SCF_SAVE_MATRICES             1
SCF_CONVERGENCE               5
SCF_FINAL_PRINT               1
METHOD                        hf
JOBTYPE                       sp
$end

$molecule
0 1
N    0.2793014    2.4068393    -0.6057517
C    -1.084857    2.4457461    -0.5511608
H    -1.6594403    3.0230294    -1.2560905
N    -1.5977117    1.7179877    0.4287543
C    -0.4897255    1.1714358    1.030191
C    -0.3461366    0.291471    2.1172343
N    -1.418709    -0.1677767    2.8101441
H    -1.238875    -0.9594802    3.4047578
H    -2.2918734    -0.1788223    2.3073619
N    0.885763    -0.0700763    2.4919494
C    1.9352348    0.4072878    1.7968022
H    2.906033    0.0788414    2.1458181
N    1.9409775    1.2242019    0.7402202
C    0.6952186    1.5779858    0.4063984
H    0.8610073    2.8298045    -1.3104502
$end

--------------------------------------------------------------

             Standard Nuclear Orientation (Angstroms)
    I     Atom           X                Y                Z
 ----------------------------------------------------------------
    1      N       2.0714708550    -0.5740590501    -0.0037657255
    2      C       2.2749728666     0.7764837506     0.0028008999
    3      H       3.2672216767     1.1955436287    -0.0098076908
    4      N       1.1547371028     1.4818533058     0.0230853621
    5      C       0.1744497160     0.5189994261     0.0178366887
    6      C      -1.2288935953     0.6040302218     0.0138028578
    7      N      -1.8715345444     1.7988946781     0.0412898703
    8      H      -2.8482184074     1.7668120865    -0.1990421725
    9      H      -1.3510846331     2.5835432058    -0.3175786198
   10      N      -1.9405279842    -0.5283435291     0.0170686769
   11      C      -1.2811803215    -1.7020176906     0.0013589627
   12      H      -1.9102117139    -2.5831837487     0.0034002113
   13      N       0.0354447203    -1.9252874204    -0.0185476984
   14      C       0.7131378616    -0.7724625343    -0.0029891890
   15      H       2.7802428666    -1.2843201039    -0.0877464458
 ----------------------------------------------------------------

    9    -464.6329859101      3.44e-06  Convergence criterion met
 Total energy in the final basis set =     -464.6329859101

                    Orbital Energies (a.u.)
 --------------------------------------------------------------

 Alpha MOs
 -- Occupied --
-15.638 -15.584 -15.573 -15.564 -15.556 -11.341 -11.330 -11.324
-11.316 -11.259  -1.377  -1.307  -1.253  -1.194  -1.160  -1.039
 -0.902  -0.883  -0.853  -0.783  -0.741  -0.702  -0.680  -0.643
 -0.638  -0.616  -0.597  -0.561  -0.502  -0.500  -0.456  -0.430
 -0.414  -0.378  -0.313

          Ground-State Mulliken Net Atomic Charges

     Atom                 Charge (a.u.)
  ----------------------------------------
      1 N                    -0.398302
      2 C                     0.275519
      3 H                     0.242263
      4 N                    -0.333097
      5 C                     0.139670
      6 C                    -0.062018
      7 N                    -0.398208
      8 H                     0.310929
      9 H                     0.282010
     10 N                    -0.350945
     11 C                     0.140144
     12 H                     0.246100
     13 N                    -0.294870
     14 C                    -0.157674
     15 H                     0.358480
  ----------------------------------------
  Sum of atomic charges =     0.000000

                    Cartesian Multipole Moments
 -----------------------------------------------------------------
    Charge (ESU x 10^10)
                 0.0000
    Dipole Moment (Debye)
         X       2.5993      Y       0.6198      Z      -1.0918
       Tot       2.8866
    Quadrupole Moments (Debye-Ang)
        XX     -44.0218     XY      -5.5885     YY     -59.3329
        XZ       1.5339     YZ      -2.4527     ZZ     -60.2751

 Total job time:  398.95s(wall), 395.77s(cpu)
        *  Thank you very much for using Q-Chem.  Have a nice day.  *
