 Q-Chem 5.0, Q-Chem, Inc., Pleasanton, CA (2017)
 Q-Chem 5.0.2 for Intel X86 EM64T Linux

User input:
--------------------------------------------------------------
$rem
SCF_PRINT                     1
BASIS                         6-311++g**
SCF_SAVE_MATRICES             1
SCF_CONVERGENCE               5
SCF_FINAL_PRINT               1
METHOD                        hf
JOBTYPE                       sp
$end

$molecule
0 1
C    -1.0478252    -1.4216736    0.0
C    -1.4545034    -0.8554459    1.2062048
C    -1.4545034    -0.8554459    -1.2062048
C    -2.266797    0.277161    1.2069539
C    -2.6714781    0.8450211    0.0
C    -2.266797    0.277161    -1.2069539
H    -1.1338534    -1.2920593    -2.142315
H    -2.5824943    0.7163066    -2.1437977
H    -3.3030422    1.72327    0.0
H    -2.5824943    0.7163066    2.1437977
H    -1.1338534    -1.2920593    2.142315
H    -0.4060253    -2.2919049    0.0
C    1.0478252    1.4216736    0.0
C    1.4545034    0.8554459    -1.2062048
C    1.4545034    0.8554459    1.2062048
C    2.266797    -0.277161    -1.2069539
C    2.6714781    -0.8450211    0.0
C    2.266797    -0.277161    1.2069539
H    0.4060253    2.2919049    0.0
H    1.1338534    1.2920593    2.142315
H    2.5824943    -0.7163066    2.1437977
H    3.3030422    -1.72327    0.0
H    2.5824943    -0.7163066    -2.1437977
H    1.1338534    1.2920593    -2.142315
$end

--------------------------------------------------------------

             Standard Nuclear Orientation (Angstroms)
    I     Atom           X                Y                Z
 ----------------------------------------------------------------
    1      C      -1.0162960406    -1.4443807783     0.0000000000
    2      C      -1.4353323343    -0.8872366756     1.2062048000
    3      C      -1.4353323343    -0.8872366756    -1.2062048000
    4      C      -2.2723457119     0.2272263737     1.2069539000
    5      C      -2.6894213003     0.7860464158     0.0000000000
    6      C      -2.2723457119     0.2272263737    -1.2069539000
    7      H      -1.1051548221    -1.3166903914    -2.1423150000
    8      H      -2.5976274289     0.6593206317    -2.1437977000
    9      H      -3.3401532628     1.6501889132    -0.0000000000
   10      H      -2.5976274289     0.6593206317     2.1437977000
   11      H      -1.1051548221    -1.3166903914     2.1423150000
   12      H      -0.3555071354    -2.3002824373     0.0000000000
   13      C       1.0162960406     1.4443807783    -0.0000000000
   14      C       1.4353323343     0.8872366756    -1.2062048000
   15      C       1.4353323343     0.8872366756     1.2062048000
   16      C       2.2723457119    -0.2272263737    -1.2069539000
   17      C       2.6894213003    -0.7860464158    -0.0000000000
   18      C       2.2723457119    -0.2272263737     1.2069539000
   19      H       0.3555071354     2.3002824373    -0.0000000000
   20      H       1.1051548221     1.3166903914     2.1423150000
   21      H       2.5976274289    -0.6593206317     2.1437977000
   22      H       3.3401532628    -1.6501889132     0.0000000000
   23      H       2.5976274289    -0.6593206317    -2.1437977000
   24      H       1.1051548221     1.3166903914    -2.1423150000
 ----------------------------------------------------------------

    7    -461.5052740754      3.21e-06  Convergence criterion met
 Total energy in the final basis set =     -461.5052740754

             Orbital Energies (a.u.) and Symmetries
 --------------------------------------------------------------

 Alpha MOs, Restricted
 -- Occupied --
-11.233 -11.233 -11.232 -11.232 -11.232 -11.232 -11.231 -11.231
  1 Bu    1 Ag    1 Bg    1 Au    2 Ag    2 Bu    3 Ag    3 Bu
-11.231 -11.231 -11.229 -11.229  -1.149  -1.145  -1.013  -1.011
  2 Au    2 Bg    4 Bu    4 Ag    5 Ag    5 Bu    3 Au    6 Bu
 -1.011  -1.010  -0.821  -0.821  -0.820  -0.820  -0.707  -0.706
  6 Ag    3 Bg    7 Ag    4 Au    4 Bg    7 Bu    8 Ag    8 Bu
 -0.640  -0.640  -0.615  -0.615  -0.586  -0.585  -0.584  -0.584
  9 Ag    9 Bu    5 Bg    5 Au    6 Au   10 Ag   10 Bu    6 Bg
 -0.514  -0.491  -0.491  -0.491  -0.491  -0.480  -0.347  -0.331
 11 Ag    7 Au   11 Bu    7 Bg   12 Ag   12 Bu    8 Au   13 Bu
 -0.330  -0.317
 13 Ag    8 Bg

 Beta MOs, Restricted
 -- Occupied --
-11.233 -11.233 -11.232 -11.232 -11.232 -11.232 -11.231 -11.231
  1 Bu    1 Ag    1 Bg    1 Au    2 Ag    2 Bu    3 Ag    3 Bu
-11.231 -11.231 -11.229 -11.229  -1.149  -1.145  -1.013  -1.011
  2 Au    2 Bg    4 Bu    4 Ag    5 Ag    5 Bu    3 Au    6 Bu
 -1.011  -1.010  -0.821  -0.821  -0.820  -0.820  -0.707  -0.706
  6 Ag    3 Bg    7 Ag    4 Au    4 Bg    7 Bu    8 Ag    8 Bu
 -0.640  -0.640  -0.615  -0.615  -0.586  -0.585  -0.584  -0.584
  9 Ag    9 Bu    5 Bg    5 Au    6 Au   10 Ag   10 Bu    6 Bg
 -0.514  -0.491  -0.491  -0.491  -0.491  -0.480  -0.347  -0.331
 11 Ag    7 Au   11 Bu    7 Bg   12 Ag   12 Bu    8 Au   13 Bu
 -0.330  -0.317
 13 Ag    8 Bg

          Ground-State Mulliken Net Atomic Charges

     Atom                 Charge (a.u.)
  ----------------------------------------
      1 C                     0.014377
      2 C                    -0.144416
      3 C                    -0.144416
      4 C                    -0.260644
      5 C                    -0.362231
      6 C                    -0.260644
      7 H                     0.196971
      8 H                     0.195192
      9 H                     0.189971
     10 H                     0.195192
     11 H                     0.196971
     12 H                     0.183676
     13 C                     0.014377
     14 C                    -0.144416
     15 C                    -0.144416
     16 C                    -0.260644
     17 C                    -0.362231
     18 C                    -0.260644
     19 H                     0.183676
     20 H                     0.196971
     21 H                     0.195192
     22 H                     0.189971
     23 H                     0.195192
     24 H                     0.196971
  ----------------------------------------
  Sum of atomic charges =    -0.000000

                    Cartesian Multipole Moments
 -----------------------------------------------------------------
    Charge (ESU x 10^10)
                -0.0000
    Dipole Moment (Debye)
         X      -0.0000      Y      -0.0000      Z       0.0000
       Tot       0.0000
    Quadrupole Moments (Debye-Ang)
        XX     -78.0403     XY      -8.7988     YY     -71.1677
        XZ       0.0000     YZ       0.0000     ZZ     -64.5262

 Total job time:  250.78s(wall), 249.52s(cpu)
        *  Thank you very much for using Q-Chem.  Have a nice day.  *
