 Q-Chem 5.0, Q-Chem, Inc., Pleasanton, CA (2017)
 Q-Chem 5.0.2 for Intel X86 EM64T Linux

User input:
--------------------------------------------------------------
$rem
SCF_PRINT                     1
BASIS                         6-311++g**
SCF_SAVE_MATRICES             1
SCF_CONVERGENCE               5
SCF_FINAL_PRINT               1
METHOD                        hf
JOBTYPE                       sp
$end

$molecule
0 1
F    -0.071729041    -0.108855435    0.260652232
H    -0.003218488    -0.010570213    1.202783243
N    0.052011732    0.047562391    2.873452643
H    1.0068262    0.080163433    3.205933085
C    -0.623816269    -1.146237096    3.397788453
H    -1.646683561    -1.160140608    3.032274493
H    -0.124806297    -2.030639328    3.011967991
H    -0.641816332    -1.203100448    4.486612449
H    -0.39708885    0.883158389    3.224595791
$end

--------------------------------------------------------------

             Standard Nuclear Orientation (Angstroms)
    I     Atom           X                Y                Z
 ----------------------------------------------------------------
    1      F       1.9337588044    -0.1976960684    -0.0000007576
    2      H       1.0552510121     0.1631204751    -0.0000591046
    3      N      -0.5374573373     0.6738514540    -0.0000146351
    4      H      -0.7364174486     1.2478783115     0.8088022672
    5      C      -1.4013035706    -0.5138347119     0.0000036092
    6      H      -1.1742781123    -1.1136222722    -0.8767891734
    7      H      -1.1739947166    -1.1138235473     0.8765763508
    8      H      -2.4677486336    -0.2862604898     0.0001994684
    9      H      -0.7366185566     1.2480202320    -0.8086421995
 ----------------------------------------------------------------

    8    -195.3166112025      2.71e-06  Convergence criterion met
 Total energy in the final basis set =     -195.3166112025

                    Orbital Energies (a.u.)
 --------------------------------------------------------------

 Alpha MOs
 -- Occupied --
-26.222 -15.584 -11.268  -1.527  -1.215  -0.930  -0.717  -0.704
 -0.636  -0.589  -0.581  -0.580  -0.549  -0.444

          Ground-State Mulliken Net Atomic Charges

     Atom                 Charge (a.u.)
  ----------------------------------------
      1 F                    -0.412702
      2 H                     0.435303
      3 N                    -0.651762
      4 H                     0.266110
      5 C                    -0.321312
      6 H                     0.152694
      7 H                     0.152697
      8 H                     0.112863
      9 H                     0.266108
  ----------------------------------------
  Sum of atomic charges =    -0.000000

                    Cartesian Multipole Moments
 -----------------------------------------------------------------
    Charge (ESU x 10^10)
                -0.0000
    Dipole Moment (Debye)
         X      -4.5769      Y       1.4133      Z       0.0001
       Tot       4.7901
    Quadrupole Moments (Debye-Ang)
        XX     -25.7341     XY       0.3295     YY     -17.4768
        XZ       0.0001     YZ       0.0000     ZZ     -18.0007

 Total job time:  22.96s(wall), 21.43s(cpu)
        *  Thank you very much for using Q-Chem.  Have a nice day.  *
