User input:
--------------------------------------------------------------
$rem
   JOBTYPE  freq
   EXCHANGE hf
   BASIS    GEN
   SCF_ALGORITHM  RCA_DIIS
   MAX_RCA_CYCLES 10
   THRESH_RCA_SWITCH 7
   SCF_GUESS      SAD
   SCF_CONVERGENCE 9
   THRESH 14
   INCFOCK 0
   INCDFT  0
   MAX_SCF_CYCLES 500
   SYMMETRY       FALSE
   SYM_IGNORE     TRUE
   MEM_TOTAL 16000
   MEM_STATIC 4000
$end

$comment
trans butadiene frequencies
$end

$basis
   H
   cc-pVDZ
   ****
   C
   cc-pVDZ
   ****
$end

$molecule
   0 1
C         -2.16422        0.87892        0.58033
C         -1.27889        0.00580        0.11870
C          0.17422        0.14451        0.27905
C          1.05956       -0.72841       -0.18290
H         -3.22727        0.73455        0.43779
H         -1.85723        1.76944        1.11715
H         -1.62356       -0.87454       -0.41442
H          0.51888        1.02478        0.81230
H          0.75259       -1.61869       -0.72013
H          2.12262       -0.58390       -0.04063
$end

--------------------------------------------------------------

   19    -154.9349690336      8.08E-10  00000 Convergence criterion met
 Total energy in the final basis set = -154.9349690336
 Frequency:       170.53                 317.60                 547.93
 Force Cnst:      0.0436                 0.1284                 0.4800
 Red. Mass:       2.5471                 2.1609                 2.7139
 IR Intens:        0.178                  3.684                  0.000
 Frequency:       578.21                 844.74                 952.40
 Force Cnst:      0.2149                 0.6894                 0.9840
 Red. Mass:       1.0910                 1.6398                 1.8413
 IR Intens:       11.779                  0.000                  0.000
 Frequency:      1048.92                1050.01                1069.41
 Force Cnst:      0.8224                 0.8749                 0.8020
 Red. Mass:       1.2687                 1.3469                 1.1903
 IR Intens:        0.000                 88.910                  2.573
 Frequency:      1099.37                1143.46                1306.72
 Force Cnst:      0.8914                 0.8496                 1.8583
 Red. Mass:       1.2519                 1.1029                 1.8471
 IR Intens:        0.000                 29.904                  0.000
 Frequency:      1409.34                1409.79                1511.78
 Force Cnst:      1.5832                 1.5030                 1.6349
 Red. Mass:       1.3529                 1.2836                 1.2141
 IR Intens:        0.000                  2.493                  5.316
 Frequency:      1574.36                1798.85                1882.23
 Force Cnst:      1.7680                 7.3632                10.0623
 Red. Mass:       1.2107                 3.8621                 4.8206
 IR Intens:        0.000                 20.848                  0.000
 Frequency:      3296.15                3300.22                3317.17
 Force Cnst:      6.8007                 6.8079                 7.0861
 Red. Mass:       1.0624                 1.0609                 1.0930
 IR Intens:        0.000                 18.459                  0.000
 Frequency:      3320.04                3393.44                3394.34
 Force Cnst:      7.1092                 7.5757                 7.5762
 Red. Mass:       1.0947                 1.1166                 1.1161
 IR Intens:       14.591                  0.013                 31.827

 STANDARD THERMODYNAMIC QUANTITIES AT   298.18 K  AND     1.00 ATM

   This Molecule has  0 Imaginary Frequencies
   Zero point vibrational energy:       56.807 kcal/mol

   Atom    1 Element C  Has Mass   12.00000
   Atom    2 Element C  Has Mass   12.00000
   Atom    3 Element C  Has Mass   12.00000
   Atom    4 Element C  Has Mass   12.00000
   Atom    5 Element H  Has Mass    1.00783
   Atom    6 Element H  Has Mass    1.00783
   Atom    7 Element H  Has Mass    1.00783
   Atom    8 Element H  Has Mass    1.00783
   Atom    9 Element H  Has Mass    1.00783
   Atom   10 Element H  Has Mass    1.00783
   Molecular Mass:    54.046980 amu
   Principal axes and moments of inertia in atomic units:
                             1           2           3
    Eigenvalues --       42.66093   405.55298   448.21391
          X               0.90524     0.42228    -0.04707
          Y              -0.38653     0.77243    -0.50394
          Z              -0.17645     0.47438     0.86246
   Rotational Symmetry Number is   1
   The Molecule is an Asymmetric Top
   Translational Enthalpy:        0.889 kcal/mol
   Rotational Enthalpy:           0.889 kcal/mol
   Vibrational Enthalpy:         57.844 kcal/mol
   gas constant (RT):             0.593 kcal/mol
   Translational Entropy:        37.884  cal/mol.K
   Rotational Entropy:           23.565  cal/mol.K
   Vibrational Entropy:           5.502  cal/mol.K

   Total Enthalpy:               60.214 kcal/mol
   Total Entropy:                66.952  cal/mol.K

 Total job time:  26.01s(wall), 26.24s(cpu)
        *  Thank you very much for using Q-Chem.  Have a nice day.  *

User input:
--------------------------------------------------------------

$rem
   JOBTYPE  aimd
   GEOM_OPT_HESSIAN read
   EXCHANGE hf
   BASIS    GEN
   SCF_ALGORITHM  RCA_DIIS
   MAX_RCA_CYCLES 10
   THRESH_RCA_SWITCH 7
   SCF_GUESS      READ
   SCF_CONVERGENCE 9
   THRESH 14
   INCFOCK 0
   INCDFT  0
   MAX_SCF_CYCLES 500
   SYMMETRY       FALSE
   SYM_IGNORE     TRUE
   MEM_TOTAL 16000
   MEM_STATIC 4000
   MOLDEN_FORMAT TRUE
   time_step                      20
   aimd_steps                   200
   aimd_temp                     298
   aimd_init_veloc    quasiclassical
   aimd_qct_which_trajectory       1
$end

$comment
butadiene TS AIMD
$end

$basis
   H
   cc-pVDZ
   ****
   C
   cc-pVDZ
   ****
$end

$molecule
read
$end

--------------------------------------------------------------

    2    -154.9349690281      2.37E-10  00000 Convergence criterion met
 Total energy in the final basis set = -154.9349690281

                    Orbital Energies (a.u.)
 --------------------------------------------------------------

 Alpha MOs
 -- Occupied --
-11.241 -11.241 -11.233 -11.233  -1.092  -1.003  -0.823  -0.752
 -0.642  -0.634  -0.557  -0.541  -0.488  -0.443  -0.325

          Ground-State Mulliken Net Atomic Charges

     Atom                 Charge (a.u.)
  ----------------------------------------
      1 C                    -0.018277
      2 C                    -0.089135
      3 C                    -0.089134
      4 C                    -0.018269
      5 H                     0.047920
      6 H                     0.038880
      7 H                     0.020610
      8 H                     0.020610
      9 H                     0.038878
     10 H                     0.047917
  ----------------------------------------
  Sum of atomic charges =     0.000000

                    Cartesian Multipole Moments
 -----------------------------------------------------------------
    Charge (ESU x 10^10)
                 0.0000
    Dipole Moment (Debye)
         X       0.0000      Y       0.0002      Z      -0.0004
       Tot       0.0004
    Quadrupole Moments (Debye-Ang)
        XX     -23.2439     XY      -0.1474     YY     -24.4108
        XZ       0.2271     YZ       2.6618     ZZ     -27.4124
    Octapole Moments (Debye-Ang^2)
       XXX      38.5155    XXY      -1.5843    XYY      13.4590
       YYY      -5.5062    XXZ      -4.8736    XYZ      -1.4813
       YYZ      -4.4523    XZZ      15.2326    YZZ      -1.0046
       ZZZ     -16.3478
    Hexadecapole Moments (Debye-Ang^3)
      XXXX    -323.2614   XXXY      50.8745   XXYY     -76.7948
      XYYY      55.8004   YYYY    -102.2710   XXXZ      31.2040
      XXYZ      -1.8962   XYYZ       7.6571   YYYZ     -14.3523
      XXZZ     -74.8382   XYZZ      18.6142   YYZZ     -25.0002

   14    -154.9302611977      6.22E-10  00000 Convergence criterion met
 Total energy in the final basis set = -154.9302611977
   13    -154.9181186148      8.44E-10  00000 Convergence criterion met
 Total energy in the final basis set = -154.9181186148
   13    -154.9023403073      6.88E-10  00000 Convergence criterion met
 Total energy in the final basis set = -154.9023403073
   13    -154.8868937016      6.49E-10  00000 Convergence criterion met
 Total energy in the final basis set = -154.8868937016
   13    -154.8749858265      7.02E-10  00000 Convergence criterion met
 Total energy in the final basis set = -154.8749858265
   13    -154.8684470051      8.15E-10  00000 Convergence criterion met
 Total energy in the final basis set = -154.8770527058
   13    -154.8840199822      9.69E-10  00000 Convergence criterion met
 Total energy in the final basis set = -154.8840199822
   14    -154.8955917522      8.71E-10  00000 Convergence criterion met
 Total energy in the final basis set = -154.8955917522
   13    -154.9056844355      7.94E-10  00000 Convergence criterion met
 Total energy in the final basis set = -154.9056844355
   14    -154.9100404063      9.77E-10  00000 Convergence criterion met
 Total energy in the final basis set = -154.9100404063
   15    -154.9077320469      1.76E-10  00000 Convergence criterion met
 Total energy in the final basis set = -154.9077320469
   15    -154.9001416846      1.91E-10  00000 Convergence criterion met
 Total energy in the final basis set = -154.9001416846

       Standard Nuclear Orientation (Angstroms)
    I     Atom         X            Y            Z
 ----------------------------------------------------
    1      C      -2.161509     0.880646     0.580004
    2      C      -1.296558     0.076000     0.133778
    3      C       0.135863     0.094918     0.278479
    4      C       1.103239    -0.741755    -0.186703
    5      H      -3.161903     0.452193     0.513637
    6      H      -1.854881     1.976847     0.972995
    7      H      -1.567323    -0.798633    -0.463530
    8      H       0.392213     0.898109     0.902811
    9      H       0.916795    -1.641776    -0.958465
   10      H       2.075856    -0.542124     0.101036
 ----------------------------------------------------

   15    -154.8896462547      1.91E-10  00000 Convergence criterion met
 Total energy in the final basis set = -154.8896462547
 Total job time:  1285.10s(wall), 1285.00s(cpu)
        *  Thank you very much for using Q-Chem.  Have a nice day.  *
