 Q-Chem 5.0, Q-Chem, Inc., Pleasanton, CA (2017)
 Q-Chem 5.0.2 for Intel X86 EM64T Linux

User input:
--------------------------------------------------------------
$rem
SCF_PRINT                     1
BASIS                         6-311++g**
SCF_SAVE_MATRICES             1
SCF_CONVERGENCE               5
SCF_FINAL_PRINT               1
METHOD                        hf
JOBTYPE                       sp
$end

$molecule
0 1
I    0.49436076    0.000136728    -0.299186147
H    -0.026818451    9.824e-06    1.227779722
O    -0.304026274    -0.000209906    3.240541651
H    -1.061671708    3.4129e-05    3.830196635
C    0.877605168    -2.964e-05    4.033497508
H    1.715615561    -0.000131053    3.343283509
H    0.946841112    0.888893429    4.660263367
H    0.946888093    -0.888723395    4.66058358
$end

--------------------------------------------------------------

             Standard Nuclear Orientation (Angstroms)
    I     Atom           X                Y                Z
 ----------------------------------------------------------------
    1      I       1.0225600044    -0.0229019849     0.0000013190
    2      H      -0.5205229176     0.4484234301     0.0000153572
    3      O      -2.5412242665     0.6601328064    -0.0000674343
    4      H      -3.1551683007     1.3982332420     0.0002973455
    5      C      -3.2953956706    -0.5466220880     0.0000129187
    6      H      -2.5783362668    -1.3617800781    -0.0002240089
    7      H      -3.9195337419    -0.6362763791     0.8889600807
    8      H      -3.9199508505    -0.6361249405    -0.8886567174
 ----------------------------------------------------------------

    7   -7032.4811971881      7.48e-06  Convergence criterion met
 Total energy in the final basis set =    -7032.4811971881

                    Orbital Energies (a.u.)
 --------------------------------------------------------------

 Alpha MOs
 -- Occupied --
*******-180.849-169.656-169.655-169.655 -37.903 -33.091 -33.088
-33.088 -24.275 -24.274 -24.274 -24.271 -24.271 -20.582 -11.288
 -7.221  -5.453  -5.444  -5.444  -2.377  -2.371  -2.371  -2.362
 -2.362  -1.383  -0.946  -0.848  -0.717  -0.640  -0.620  -0.538
 -0.488  -0.475  -0.366  -0.366

          Ground-State Mulliken Net Atomic Charges

     Atom                 Charge (a.u.)
  ----------------------------------------
      1 I                    -0.123967
      2 H                     0.116721
      3 O                    -0.410717
      4 H                     0.282366
      5 C                    -0.235120
      6 H                     0.135270
      7 H                     0.117724
      8 H                     0.117723
  ----------------------------------------
  Sum of atomic charges =    -0.000000

                    Cartesian Multipole Moments
 -----------------------------------------------------------------
    Charge (ESU x 10^10)
                -0.0000
    Dipole Moment (Debye)
         X      -3.7181      Y       0.1778      Z       0.0007
       Tot       3.7224
    Quadrupole Moments (Debye-Ang)
        XX     -29.1222     XY      -2.3232     YY     -41.1749
        XZ      -0.0024     YZ       0.0012     ZZ     -44.5845

 Total job time:  47.35s(wall), 44.01s(cpu)
        *  Thank you very much for using Q-Chem.  Have a nice day.  *
