 Q-Chem 5.0, Q-Chem, Inc., Pleasanton, CA (2017)
 Q-Chem 5.0.2 for Intel X86 EM64T Linux

User input:
--------------------------------------------------------------
$rem
SCF_PRINT                     1
BASIS                         6-311++g**
SCF_SAVE_MATRICES             1
SCF_CONVERGENCE               5
SCF_FINAL_PRINT               1
METHOD                        hf
JOBTYPE                       sp
$end

$molecule
0 1
O    -1.3976213    -1.8858368    -0.3673061
N    -1.464255    0.3641828    0.0192301
C    -4.1857398    0.3696669    0.036096
C    -3.4832598    1.5783111    0.2500752
C    -2.1179502    1.5307048    0.2338383
C    -2.0773833    -0.8637492    -0.1899414
C    -3.5156032    -0.805195    -0.1757585
H    -5.2678045    0.3707428    0.0411419
H    -3.9920334    2.512756    0.4214414
H    -1.4929196    2.3984096    0.3885018
H    -4.0401226    -1.7348452    -0.3379269
H    -0.4265266    0.3612127    0.0073538
$end

--------------------------------------------------------------

             Standard Nuclear Orientation (Angstroms)
    I     Atom           X                Y                Z
 ----------------------------------------------------------------
    1      O       2.2882835802    -0.0259115318     0.0050364357
    2      N       0.3112634464     1.1176487988    -0.0049458042
    3      C      -1.1265918420    -1.1930548249    -0.0010749566
    4      C      -1.8014147249     0.0497981267     0.0030076799
    5      C      -1.0413492550     1.1850943341     0.0011901761
    6      C       1.0484907146    -0.0587749124    -0.0005603706
    7      C       0.2412353322    -1.2505966769    -0.0029808893
    8      H      -1.6971106968    -2.1125105665    -0.0009790727
    9      H      -2.8770285384     0.1164270739     0.0074494659
   10      H      -1.4625127124     2.1801304738     0.0056725936
   11      H       0.7682344567    -2.1929024292    -0.0036718366
   12      H       0.8610833750     1.9978098313    -0.0116318433
 ----------------------------------------------------------------

    9    -321.6456331248      4.48e-06  Convergence criterion met
 Total energy in the final basis set =     -321.6456331248

                    Orbital Energies (a.u.)
 --------------------------------------------------------------

 Alpha MOs
 -- Occupied --
-20.507 -15.636 -11.357 -11.320 -11.277 -11.248 -11.243  -1.374
 -1.283  -1.115  -1.037  -0.893  -0.871  -0.762  -0.702  -0.682
 -0.645  -0.612  -0.611  -0.561  -0.543  -0.484  -0.429  -0.425
 -0.315

          Ground-State Mulliken Net Atomic Charges

     Atom                 Charge (a.u.)
  ----------------------------------------
      1 O                    -0.473869
      2 N                    -0.383591
      3 C                     0.047470
      4 C                    -0.575142
      5 C                     0.064826
      6 C                     0.109680
      7 C                    -0.034925
      8 H                     0.232169
      9 H                     0.196282
     10 H                     0.216515
     11 H                     0.240507
     12 H                     0.360078
  ----------------------------------------
  Sum of atomic charges =     0.000000

                    Cartesian Multipole Moments
 -----------------------------------------------------------------
    Charge (ESU x 10^10)
                 0.0000
    Dipole Moment (Debye)
         X      -5.0007      Y       1.6522      Z      -0.0160
       Tot       5.2666
    Quadrupole Moments (Debye-Ang)
        XX     -49.7702     XY       1.2284     YY     -30.6617
        XZ      -0.0704     YZ      -0.0178     ZZ     -44.1490

 Total job time:  160.36s(wall), 159.02s(cpu)
        *  Thank you very much for using Q-Chem.  Have a nice day.  *
