 Q-Chem 5.0, Q-Chem, Inc., Pleasanton, CA (2017)
 Q-Chem 5.0.2 for Intel X86 EM64T Linux

User input:
--------------------------------------------------------------
$rem
SCF_PRINT                     1
BASIS                         6-311++g**
SCF_SAVE_MATRICES             1
SCF_CONVERGENCE               5
SCF_FINAL_PRINT               1
METHOD                        hf
JOBTYPE                       sp
$end

$molecule
0 1
F    -0.071729041    -0.108855435    0.260652232
H    -0.003218488    -0.010570213    1.202783243
$end

--------------------------------------------------------------

             Standard Nuclear Orientation (Angstroms)
    I     Atom           X                Y                Z
 ----------------------------------------------------------------
    1      F      -0.0000000000     0.0000000000    -0.0949718128
    2      H      -0.0000000000     0.0000000000     0.8547463152
 ----------------------------------------------------------------

    8    -100.0501515558      9.50e-07  Convergence criterion met
 Total energy in the final basis set =     -100.0501515558

                    Orbital Energies (a.u.)
 --------------------------------------------------------------

 Alpha MOs
 -- Occupied --
-26.300  -1.593  -0.757  -0.648  -0.648

          Ground-State Mulliken Net Atomic Charges

     Atom                 Charge (a.u.)
  ----------------------------------------
      1 F                    -0.313353
      2 H                     0.313353
  ----------------------------------------
  Sum of atomic charges =    -0.000000

                    Cartesian Multipole Moments
 -----------------------------------------------------------------
    Charge (ESU x 10^10)
                -0.0000
    Dipole Moment (Debye)
         X       0.0000      Y       0.0000      Z       2.1355
       Tot       2.1355
    Quadrupole Moments (Debye-Ang)
        XX      -5.7202     XY       0.0000     YY      -5.7202
        XZ       0.0000     YZ       0.0000     ZZ      -3.4726

 Total job time:  1.16s(wall), 1.00s(cpu)
        *  Thank you very much for using Q-Chem.  Have a nice day.  *
