 Q-Chem 5.0, Q-Chem, Inc., Pleasanton, CA (2017)
 Q-Chem 5.0.2 for Intel X86 EM64T Linux

User input:
--------------------------------------------------------------
$rem
SCF_PRINT                     1
BASIS                         6-311++g**
SCF_SAVE_MATRICES             1
SCF_CONVERGENCE               5
SCF_FINAL_PRINT               1
METHOD                        hf
JOBTYPE                       sp
$end

$molecule
0 1
C    -0.0210742    1.5318615    -1.3639345
C    -1.2746794    0.974103    -1.6074097
C    -1.3783055    -0.2256981    -2.3084154
C    -0.2289426    -0.8664053    -2.7687944
C    1.0247882    -0.3035171    -2.531241
C    1.1289996    0.8966787    -1.829983
H    0.060074    2.4565627    -0.8093957
H    -2.1651002    1.4654521    -1.2405676
H    -2.3509735    -0.6616122    -2.4926698
H    -0.3103419    -1.7955762    -3.3172704
H    1.9165847    -0.7940845    -2.8993942
H    2.1000347    1.3326757    -1.640042
H    -2.9417647    0.8953834    2.2239054
C    -2.0220674    0.425854    1.9013549
C    -0.8149418    1.0740453    2.1066982
H    -0.7851529    2.0443812    2.5856086
C    0.3704286    0.4492852    1.6847458
C    1.7508619    0.8038935    1.7194004
H    2.1870108    1.6998281    2.1275903
C    2.4451359    -0.2310742    1.1353313
N    1.5646462    -1.2137812    0.7555384
C    0.2861214    -0.8269486    1.0618752
C    -0.9284667    -1.4853121    0.8606937
H    -0.97292    -2.4554847    0.3834013
C    -2.0792848    -0.8417668    1.2876443
H    -3.0389974    -1.3203846    1.14684
H    1.8075741    -2.0366963    0.2333038
H    3.5028794    -0.3485344    0.9695233
$end

--------------------------------------------------------------

             Standard Nuclear Orientation (Angstroms)
    I     Atom           X                Y                Z
 ----------------------------------------------------------------
    1      C       1.3100856013    -0.0285187506    -1.5645473752
    2      C       1.5473439238    -1.2895179762    -1.0209573124
    3      C       2.2776275816    -1.4123415485     0.1594113541
    4      C       2.7734550439    -0.2748198257     0.7947766613
    5      C       2.5419838617     0.9862415957     0.2459043213
    6      C       1.8114473671     1.1096570524    -0.9348487485
    7      H       0.7330098588     0.0676577430    -2.4738901543
    8      H       1.1531752991    -2.1706316459    -1.5079029581
    9      H       2.4571428067    -2.3906909766     0.5844531229
   10      H       3.3445834161    -0.3711774182     1.7087448920
   11      H       2.9374652286     1.8687144257     0.7320425144
   12      H       1.6262191766     2.0864671583    -1.3598342393
   13      H      -2.3075653847    -2.8943404515    -0.8519466179
   14      C      -1.9577543294    -1.9830906853    -0.3854748659
   15      C      -2.1600256430    -0.7686000677    -1.0207455970
   16      H      -2.6635467491    -0.7247132689    -1.9779993529
   17      C      -1.7024293116     0.4056539581    -0.4000966816
   18      C      -1.7235732170     1.7887379144    -0.7453151463
   19      H      -2.1477681040     2.2372859835    -1.6275889091
   20      C      -1.1013230587     2.4666676948     0.2781726133
   21      N      -0.7105697025     1.5737483602     1.2452427675
   22      C      -1.0479298946     0.3029259414     0.8588416284
   23      C      -0.8496758490    -0.9190240363     1.5043447904
   24      H      -0.3480179190    -0.9775455154     2.4613889705
   25      C      -1.3121889145    -2.0585277979     0.8652575439
   26      H      -1.1747748111    -3.0234915750     1.3342046594
   27      H      -0.1630987055     1.8027847302     2.0556439351
   28      H      -0.9150951642     3.5207814780     0.3976456500
 ----------------------------------------------------------------

    7    -592.2977936785      8.67e-06  Convergence criterion met
 Total energy in the final basis set =     -592.2977936785

                    Orbital Energies (a.u.)
 --------------------------------------------------------------

 Alpha MOs
 -- Occupied --
-15.601 -11.272 -11.262 -11.230 -11.229 -11.229 -11.229 -11.227
-11.227 -11.226 -11.226 -11.225 -11.225 -11.221 -11.216  -1.299
 -1.143  -1.129  -1.057  -1.007  -1.007  -0.997  -0.974  -0.843
 -0.817  -0.817  -0.806  -0.789  -0.728  -0.703  -0.662  -0.648
 -0.637  -0.611  -0.603  -0.596  -0.586  -0.581  -0.580  -0.574
 -0.550  -0.507  -0.492  -0.487  -0.487  -0.481  -0.462  -0.386
 -0.327  -0.325  -0.298  -0.279

          Ground-State Mulliken Net Atomic Charges

     Atom                 Charge (a.u.)
  ----------------------------------------
      1 C                    -0.155706
      2 C                    -0.082964
      3 C                    -0.155208
      4 C                    -0.409593
      5 C                    -0.463372
      6 C                     0.044521
      7 H                     0.207783
      8 H                     0.189335
      9 H                     0.201294
     10 H                     0.185112
     11 H                     0.197377
     12 H                     0.194574
     13 H                     0.195275
     14 C                    -0.468195
     15 C                    -0.570053
     16 H                     0.207050
     17 C                     0.429371
     18 C                    -0.111424
     19 H                     0.200103
     20 C                    -0.248148
     21 N                    -0.161863
     22 C                     0.285448
     23 C                    -0.223337
     24 H                     0.202426
     25 C                    -0.419244
     26 H                     0.204149
     27 H                     0.323860
     28 H                     0.201428
  ----------------------------------------
  Sum of atomic charges =    -0.000000

                    Cartesian Multipole Moments
 -----------------------------------------------------------------
    Charge (ESU x 10^10)
                -0.0000
    Dipole Moment (Debye)
         X       0.6917      Y       1.2624      Z       1.2429
       Tot       1.9018
    Quadrupole Moments (Debye-Ang)
        XX     -99.9130     XY       1.3034     YY     -78.5888
        XZ       8.9834     YZ       1.9580     ZZ     -82.5394

 Total job time:  1653.55s(wall), 1642.87s(cpu)
        *  Thank you very much for using Q-Chem.  Have a nice day.  *
