 Q-Chem 5.0, Q-Chem, Inc., Pleasanton, CA (2017)
 Q-Chem 5.0.2 for Intel X86 EM64T Linux

User input:
--------------------------------------------------------------
$rem
SCF_PRINT                     1
BASIS                         6-311++g**
SCF_SAVE_MATRICES             1
SCF_CONVERGENCE               5
SCF_FINAL_PRINT               1
METHOD                        hf
JOBTYPE                       sp
$end

$molecule
0 1
H    -2.9417647    0.8953834    2.2239054
C    -2.0220674    0.425854    1.9013549
C    -0.8149418    1.0740453    2.1066982
H    -0.7851529    2.0443812    2.5856086
C    0.3704286    0.4492852    1.6847458
C    1.7508619    0.8038935    1.7194004
H    2.1870108    1.6998281    2.1275903
C    2.4451359    -0.2310742    1.1353313
N    1.5646462    -1.2137812    0.7555384
C    0.2861214    -0.8269486    1.0618752
C    -0.9284667    -1.4853121    0.8606937
H    -0.97292    -2.4554847    0.3834013
C    -2.0792848    -0.8417668    1.2876443
H    -3.0389974    -1.3203846    1.14684
H    1.8075741    -2.0366963    0.2333038
H    3.5028794    -0.3485344    0.9695233
$end

--------------------------------------------------------------

             Standard Nuclear Orientation (Angstroms)
    I     Atom           X                Y                Z
 ----------------------------------------------------------------
    1      H       3.1053227259    -1.1967362622    -0.0059259318
    2      C       2.1505936934    -0.6879808091    -0.0055138541
    3      C       0.9805550038    -1.4299092269    -0.0008518755
    4      H       1.0143056719    -2.5118742270     0.0017824165
    5      C      -0.2508839106    -0.7538787756     0.0027571086
    6      C      -1.6151403046    -1.1678105527    -0.0002526842
    7      H      -1.9938935307    -2.1757892165     0.0080341642
    8      C      -2.3807988931    -0.0241047084    -0.0041395929
    9      N      -1.5583828635     1.0752566943     0.0118036520
   10      C      -0.2496633004     0.6687403846     0.0015589090
   11      C       0.9280980504     1.4184140891     0.0044371013
   12      H       0.9091014950     2.5003806215     0.0018761335
   13      C       2.1259567367     0.7213235658     0.0000739140
   14      H       3.0590375801     1.2684151836     0.0002334954
   15      H      -1.8659029415     2.0279452595    -0.0703431873
   16      H      -3.4515934107     0.0920979805    -0.0066968120
 ----------------------------------------------------------------

    8    -361.5509359222      6.35e-06  Convergence criterion met
 Total energy in the final basis set =     -361.5509359222

                    Orbital Energies (a.u.)
 --------------------------------------------------------------

 Alpha MOs
 -- Occupied --
-15.606 -11.274 -11.268 -11.234 -11.232 -11.230 -11.228 -11.223
-11.219  -1.304  -1.133  -1.060  -1.000  -0.977  -0.846  -0.810
 -0.793  -0.732  -0.666  -0.651  -0.606  -0.599  -0.586  -0.576
 -0.553  -0.510  -0.485  -0.466  -0.387  -0.302  -0.283

          Ground-State Mulliken Net Atomic Charges

     Atom                 Charge (a.u.)
  ----------------------------------------
      1 H                     0.191017
      2 C                    -0.122078
      3 C                    -0.801012
      4 H                     0.182018
      5 C                     1.812930
      6 C                    -0.520792
      7 H                     0.184369
      8 C                     0.041463
      9 N                    -0.206466
     10 C                    -0.824596
     11 C                    -0.483213
     12 H                     0.186898
     13 C                    -0.377496
     14 H                     0.196393
     15 H                     0.330441
     16 H                     0.210122
  ----------------------------------------
  Sum of atomic charges =    -0.000000

                    Cartesian Multipole Moments
 -----------------------------------------------------------------
    Charge (ESU x 10^10)
                 0.0000
    Dipole Moment (Debye)
         X      -1.5009      Y       1.5273      Z      -0.1246
       Tot       2.1449
    Quadrupole Moments (Debye-Ang)
        XX     -45.2922     XY      -3.1203     YY     -44.4635
        XZ       0.2801     YZ      -0.3612     ZZ     -60.0091

 Total job time:  332.24s(wall), 328.78s(cpu)
        *  Thank you very much for using Q-Chem.  Have a nice day.  *
