 Q-Chem 5.0, Q-Chem, Inc., Pleasanton, CA (2017)
 Q-Chem 5.0.2 for Intel X86 EM64T Linux

User input:
--------------------------------------------------------------
$rem
SCF_PRINT                     1
BASIS                         6-311++g**
SCF_SAVE_MATRICES             1
SCF_CONVERGENCE               5
SCF_FINAL_PRINT               1
METHOD                        hf
JOBTYPE                       sp
$end

$molecule
0 1
Br    0.430759046    -0.000115215    -0.107945607
H    0.01775041    -1.3811e-05    1.259967353
O    -0.257020059    0.000182833    3.141151173
H    -1.048680694    -4.0312e-05    3.684018874
C    0.880527259    2.5604e-05    3.997486173
H    1.753839233    9.853e-05    3.353020187
H    0.91354958    0.888915397    4.626706548
H    0.913509357    -0.889046121    4.62645042
$end

--------------------------------------------------------------

             Standard Nuclear Orientation (Angstroms)
    I     Atom           X                Y                Z
 ----------------------------------------------------------------
    1      Br      1.2727000161    -0.0386082552    -0.0000021045
    2      H      -0.0971367124     0.3679742663    -0.0000115048
    3      O      -1.9795897007     0.6339106408     0.0000641059
    4      H      -2.5261677998     1.4230140697    -0.0002701265
    5      C      -2.8305751255    -0.5076441579    -0.0000132303
    6      H      -2.1820165475    -1.3779210956     0.0001844627
    7      H      -3.4596773008    -0.5435251184     0.8888494294
    8      H      -3.4593338451    -0.5436733681    -0.8891120682
 ----------------------------------------------------------------

    8   -2688.0415483475      3.05e-06  Convergence criterion met
 Total energy in the final basis set =    -2688.0415483475

                    Orbital Energies (a.u.)
 --------------------------------------------------------------

 Alpha MOs
 -- Occupied --
******* -65.140 -58.500 -58.499 -58.499 -20.588 -11.292  -9.820
 -7.433  -7.426  -7.426  -3.172  -3.169  -3.168  -3.161  -3.161
 -1.389  -1.004  -0.950  -0.725  -0.645  -0.630  -0.560  -0.512
 -0.481  -0.407  -0.406

          Ground-State Mulliken Net Atomic Charges

     Atom                 Charge (a.u.)
  ----------------------------------------
      1 Br                   -0.185502
      2 H                     0.159801
      3 O                    -0.422748
      4 H                     0.292201
      5 C                    -0.220221
      6 H                     0.134425
      7 H                     0.121022
      8 H                     0.121023
  ----------------------------------------
  Sum of atomic charges =     0.000000

                    Cartesian Multipole Moments
 -----------------------------------------------------------------
    Charge (ESU x 10^10)
                 0.0000
    Dipole Moment (Debye)
         X      -4.1178      Y       0.4005      Z      -0.0007
       Tot       4.1372
    Quadrupole Moments (Debye-Ang)
        XX     -22.8789     XY      -2.1115     YY     -30.3121
        XZ       0.0018     YZ      -0.0011     ZZ     -33.9816

 Total job time:  46.36s(wall), 45.27s(cpu)
        *  Thank you very much for using Q-Chem.  Have a nice day.  *
