 Q-Chem 5.0, Q-Chem, Inc., Pleasanton, CA (2017)
 Q-Chem 5.0.2 for Intel X86 EM64T Linux

User input:
--------------------------------------------------------------
$rem
SCF_PRINT                     1
BASIS                         6-311++g**
SCF_SAVE_MATRICES             1
SCF_CONVERGENCE               5
SCF_FINAL_PRINT               1
METHOD                        hf
JOBTYPE                       sp
$end

$molecule
0 1
O    1.902892753    0.321317956    -0.0058889
H    2.357570941    -0.049824215    -0.765819097
H    2.357578038    -0.050794037    0.753566975
$end

--------------------------------------------------------------

             Standard Nuclear Orientation (Angstroms)
    I     Atom           X                Y                Z
 ----------------------------------------------------------------
    1      O      -0.0000008321    -0.1174465369     0.0000000000
    2      H      -0.7596898622     0.4697887206    -0.0000000000
    3      H       0.7596965193     0.4697835747    -0.0000000000
 ----------------------------------------------------------------

    7     -76.0526376257      8.27e-06  Convergence criterion met
 Total energy in the final basis set =      -76.0526376257

             Orbital Energies (a.u.) and Symmetries
 --------------------------------------------------------------

 Alpha MOs, Restricted
 -- Occupied --
-20.567  -1.354  -0.719  -0.584  -0.510
  1 A'    2 A'    3 A'    4 A'    1 A"

 Beta MOs, Restricted
 -- Occupied --
-20.567  -1.354  -0.719  -0.584  -0.510
  1 A'    2 A'    3 A'    4 A'    1 A"

          Ground-State Mulliken Net Atomic Charges

     Atom                 Charge (a.u.)
  ----------------------------------------
      1 O                    -0.512527
      2 H                     0.256263
      3 H                     0.256264
  ----------------------------------------
  Sum of atomic charges =    -0.000000

                    Cartesian Multipole Moments
 -----------------------------------------------------------------
    Charge (ESU x 10^10)
                -0.0000
    Dipole Moment (Debye)
         X       0.0000      Y       2.2411      Z       0.0000
       Tot       2.2411
    Quadrupole Moments (Debye-Ang)
        XX      -4.2402     XY      -0.0000     YY      -6.2963
        XZ       0.0000     YZ      -0.0000     ZZ      -7.5670

 Total job time:  1.38s(wall), 1.20s(cpu)
        *  Thank you very much for using Q-Chem.  Have a nice day.  *
