 Q-Chem 5.0, Q-Chem, Inc., Pleasanton, CA (2017)
 Q-Chem 5.0.2 for Intel X86 EM64T Linux

User input:
--------------------------------------------------------------
$rem
SCF_PRINT                     1
BASIS                         6-311++g**
SCF_SAVE_MATRICES             1
SCF_CONVERGENCE               5
SCF_FINAL_PRINT               1
METHOD                        hf
JOBTYPE                       sp
$end

$molecule
0 1
N    -4.582592278    -0.001974697    4.004623405
C    -5.432248278    1.033095303    3.443517405
C    -5.202064278    -1.306090697    3.850638405
C    -4.310611278    0.268567303    5.404935405
H    -5.229215278    0.283653303    6.011064405
H    -3.647037278    -0.497334697    5.803030405
H    -3.817378278    1.234370303    5.501577405
H    -6.408881278    1.087511303    3.948188405
H    -4.940827278    2.000098303    3.537088405
H    -5.600716278    0.834533303    2.386353405
H    -6.166829278    -1.372211697    4.376310405
H    -5.370060278    -1.508608697    2.794164405
H    -4.539891278    -2.074436697    4.246253405
$end

--------------------------------------------------------------

             Standard Nuclear Orientation (Angstroms)
    I     Atom           X                Y                Z
 ----------------------------------------------------------------
    1      N      -0.0000088854    -0.0000079244     0.3951519998
    2      C       1.0149731855    -0.9308817452    -0.0646419671
    3      C      -1.3137154542    -0.4134529632    -0.0646454897
    4      C       0.2987728634     1.3443743485    -0.0646371981
    5      H       0.3141961016     1.4138389654    -1.1629950868
    6      H      -0.4521716827     2.0356569011     0.3143439058
    7      H       1.2717617556     1.6525829307     0.3144327013
    8      H       1.0672265162    -0.9791094548    -1.1630087608
    9      H       1.9890857683    -0.6262633376     0.3143794503
   10      H       0.7955139668    -1.9276367080     0.3144638932
   11      H      -1.3814577222    -0.4349951702    -1.1630176770
   12      H      -1.5371119426    -1.4092904954     0.3145314184
   13      H      -2.0671641314     0.2750339994     0.3143540868
 ----------------------------------------------------------------

    7    -173.3176058216      5.01e-06  Convergence criterion met
 Total energy in the final basis set =     -173.3176058216

                    Orbital Energies (a.u.)
 --------------------------------------------------------------

 Alpha MOs
 -- Occupied --
-15.545 -11.239 -11.239 -11.239  -1.227  -0.951  -0.951  -0.807
 -0.644  -0.630  -0.630  -0.545  -0.545  -0.518  -0.500  -0.500
 -0.355

          Ground-State Mulliken Net Atomic Charges

     Atom                 Charge (a.u.)
  ----------------------------------------
      1 N                    -0.073157
      2 C                    -0.327052
      3 C                    -0.327050
      4 C                    -0.327046
      5 H                     0.110363
      6 H                     0.120525
      7 H                     0.120526
      8 H                     0.110356
      9 H                     0.120531
     10 H                     0.120553
     11 H                     0.110351
     12 H                     0.120561
     13 H                     0.120540
  ----------------------------------------
  Sum of atomic charges =     0.000000

                    Cartesian Multipole Moments
 -----------------------------------------------------------------
    Charge (ESU x 10^10)
                 0.0000
    Dipole Moment (Debye)
         X      -0.0001      Y      -0.0001      Z      -0.8305
       Tot       0.8305
    Quadrupole Moments (Debye-Ang)
        XX     -26.4405     XY      -0.0001     YY     -26.4424
        XZ       0.0001     YZ       0.0000     ZZ     -30.1087

 Total job time:  77.98s(wall), 73.05s(cpu)
        *  Thank you very much for using Q-Chem.  Have a nice day.  *
