 Q-Chem 5.0, Q-Chem, Inc., Pleasanton, CA (2017)
 Q-Chem 5.0.2 for Intel X86 EM64T Linux

User input:
--------------------------------------------------------------
$rem
SCF_PRINT                     1
BASIS                         6-311++g**
SCF_SAVE_MATRICES             1
SCF_CONVERGENCE               5
SCF_FINAL_PRINT               1
METHOD                        hf
JOBTYPE                       sp
$end

$molecule
0 1
C    0.081577546    -0.079576968    -0.122248507
Br    1.796548323    0.3971285    0.629679005
H    0.013255521    -1.160016154    -0.156779811
H    -0.692267287    0.331402893    0.514488442
H    0.018180933    0.339827727    -1.118895585
$end

--------------------------------------------------------------

             Standard Nuclear Orientation (Angstroms)
    I     Atom           X                Y                Z
 ----------------------------------------------------------------
    1      C      -1.5138969053     0.0000021013    -0.0001687050
    2      Br      0.4183990953     0.0000003683    -0.0000328652
    3      H      -1.8544851053    -0.8858803042    -0.5221085353
    4      H      -1.8516115754    -0.0100947944     1.0289187880
    5      H      -1.8544902222     0.8959496008    -0.5046477408
 ----------------------------------------------------------------

    7   -2611.9951210081      8.89e-06  Convergence criterion met
 Total energy in the final basis set =    -2611.9951210081

                    Orbital Energies (a.u.)
 --------------------------------------------------------------

 Alpha MOs
 -- Occupied --
******* -65.148 -58.509 -58.507 -58.507 -11.290  -9.828  -7.442
 -7.434  -7.434  -3.181  -3.178  -3.178  -3.168  -3.168  -1.065
 -0.899  -0.614  -0.614  -0.510  -0.402  -0.402

          Ground-State Mulliken Net Atomic Charges

     Atom                 Charge (a.u.)
  ----------------------------------------
      1 C                    -0.326322
      2 Br                   -0.121754
      3 H                     0.149329
      4 H                     0.149419
      5 H                     0.149328
  ----------------------------------------
  Sum of atomic charges =     0.000000

                    Cartesian Multipole Moments
 -----------------------------------------------------------------
    Charge (ESU x 10^10)
                 0.0000
    Dipole Moment (Debye)
         X      -2.2262      Y      -0.0000      Z       0.0012
       Tot       2.2262
    Quadrupole Moments (Debye-Ang)
        XX     -22.1279     XY      -0.0000     YY     -26.1402
        XZ       0.0026     YZ       0.0000     ZZ     -26.1432

 Total job time:  25.43s(wall), 23.08s(cpu)
        *  Thank you very much for using Q-Chem.  Have a nice day.  *
