 Q-Chem 5.0, Q-Chem, Inc., Pleasanton, CA (2017)
 Q-Chem 5.0.2 for Intel X86 EM64T Linux

User input:
--------------------------------------------------------------
$rem
SCF_PRINT                     1
BASIS                         6-311++g**
SCF_SAVE_MATRICES             1
SCF_CONVERGENCE               5
SCF_FINAL_PRINT               1
METHOD                        hf
JOBTYPE                       sp
$end

$molecule
0 1
C    0.301152114    -0.173118099    2.764480435
Cl    -0.024870834    -0.077582132    1.017161127
H    1.247502252    0.314602623    2.964654708
H    0.346131151    -1.217442126    3.048836143
H    -0.501709016    0.328185531    3.291345152
$end

--------------------------------------------------------------

             Standard Nuclear Orientation (Angstroms)
    I     Atom           X                Y                Z
 ----------------------------------------------------------------
    1      C       1.1242458521     0.0000047454    -0.0000062362
    2      Cl     -0.6557942732     0.0000070763    -0.0000070475
    3      H       1.4678942282     0.9738176940    -0.3272889284
    4      H       1.4676615256    -0.7704748299    -0.6796538324
    5      H       1.4674717789    -0.2034916329     1.0070999850
 ----------------------------------------------------------------

    7    -499.1325498101      6.21e-06  Convergence criterion met
 Total energy in the final basis set =     -499.1325498101

                    Orbital Energies (a.u.)
 --------------------------------------------------------------

 Alpha MOs
 -- Occupied --
******* -11.292 -10.550  -8.019  -8.016  -8.016  -1.131  -0.918
 -0.621  -0.621  -0.548  -0.436  -0.436

          Ground-State Mulliken Net Atomic Charges

     Atom                 Charge (a.u.)
  ----------------------------------------
      1 C                    -0.523305
      2 Cl                    0.027524
      3 H                     0.165251
      4 H                     0.165261
      5 H                     0.165270
  ----------------------------------------
  Sum of atomic charges =     0.000000

                    Cartesian Multipole Moments
 -----------------------------------------------------------------
    Charge (ESU x 10^10)
                 0.0000
    Dipole Moment (Debye)
         X       2.2540      Y      -0.0001      Z       0.0001
       Tot       2.2540
    Quadrupole Moments (Debye-Ang)
        XX     -18.3690     XY       0.0003     YY     -20.1148
        XZ      -0.0003     YZ       0.0000     ZZ     -20.1149

 Total job time:  8.50s(wall), 7.97s(cpu)
        *  Thank you very much for using Q-Chem.  Have a nice day.  *
