 Q-Chem 5.0, Q-Chem, Inc., Pleasanton, CA (2017)
 Q-Chem 5.0.2 for Intel X86 EM64T Linux

User input:
--------------------------------------------------------------
$rem
SCF_PRINT                     1
BASIS                         6-311++g**
SCF_SAVE_MATRICES             1
SCF_CONVERGENCE               5
SCF_FINAL_PRINT               1
METHOD                        hf
JOBTYPE                       sp
$end

$molecule
0 1
S    -4.157443472    5.729584377    -0.878761129
H    -4.823791426    4.796089466    -1.563433338
C    -2.82833852    5.970593053    -2.091189515
H    -2.167577293    6.722356639    -1.668621815
H    -2.264954814    5.054835899    -2.240198499
H    -3.218524904    6.337447714    -3.035087058
$end

--------------------------------------------------------------

             Standard Nuclear Orientation (Angstroms)
    I     Atom           X                Y                Z
 ----------------------------------------------------------------
    1      S       0.6602075242    -0.0861781433    -0.0000994839
    2      H       0.8917262957     1.2293473186     0.0003430650
    3      C      -1.1518141111     0.0194879052    -0.0002600578
    4      H      -1.5134643404    -1.0049390710     0.0084480730
    5      H      -1.5135625427     0.5248563775     0.8896595015
    6      H      -1.5171351331     0.5126582365    -0.8952985505
 ----------------------------------------------------------------

    7    -437.7413482803      7.46e-06  Convergence criterion met
 Total energy in the final basis set =     -437.7413482803

                    Orbital Energies (a.u.)
 --------------------------------------------------------------

 Alpha MOs
 -- Occupied --
-91.953 -11.259  -8.955  -6.638  -6.637  -6.635  -1.041  -0.870
 -0.611  -0.595  -0.530  -0.460  -0.357

          Ground-State Mulliken Net Atomic Charges

     Atom                 Charge (a.u.)
  ----------------------------------------
      1 S                     0.042915
      2 H                     0.006001
      3 C                    -0.478641
      4 H                     0.152468
      5 H                     0.138650
      6 H                     0.138607
  ----------------------------------------
  Sum of atomic charges =     0.000000

                    Cartesian Multipole Moments
 -----------------------------------------------------------------
    Charge (ESU x 10^10)
                 0.0000
    Dipole Moment (Debye)
         X      -1.4964      Y       0.9861      Z       0.0017
       Tot       1.7921
    Quadrupole Moments (Debye-Ang)
        XX     -20.5844     XY       1.4870     YY     -19.5646
        XZ       0.0018     YZ      -0.0004     ZZ     -22.9375

 Total job time:  11.07s(wall), 10.16s(cpu)
        *  Thank you very much for using Q-Chem.  Have a nice day.  *
