 Q-Chem 5.0, Q-Chem, Inc., Pleasanton, CA (2017)
 Q-Chem 5.0.2 for Intel X86 EM64T Linux

User input:
--------------------------------------------------------------
$rem
SCF_PRINT                     1
BASIS                         6-311++g**
SCF_SAVE_MATRICES             1
SCF_CONVERGENCE               5
SCF_FINAL_PRINT               1
METHOD                        hf
JOBTYPE                       sp
$end

$molecule
0 1
H    0.855171335    -8.119e-06    -0.588786261
O    0.27154607    1.6357e-05    0.175592508
C    1.084050448    1.807e-06    1.33525199
H    0.417831608    -2.486e-06    2.192984764
H    1.718489566    -0.886312946    1.398035525
H    1.718498554    0.886309236    1.398050411
$end

--------------------------------------------------------------

             Standard Nuclear Orientation (Angstroms)
    I     Atom           X                Y                Z
 ----------------------------------------------------------------
    1      H       1.1287182227    -0.7603711130     0.0000002399
    2      O       0.7472570377     0.1224543043     0.0000001076
    3      C      -0.6615939127    -0.0193641646     0.0000000920
    4      H      -1.0841111868     0.9811518055    -0.0000321604
    5      H      -1.0265476198    -0.5421422501    -0.8862958366
    6      H      -1.0265522412    -0.5420878890     0.8863263446
 ----------------------------------------------------------------

    7    -115.0796183608      9.57e-06  Convergence criterion met
 Total energy in the final basis set =     -115.0796183608

                    Orbital Energies (a.u.)
 --------------------------------------------------------------

 Alpha MOs
 -- Occupied --
-20.559 -11.273  -1.361  -0.928  -0.694  -0.622  -0.596  -0.505
 -0.452

          Ground-State Mulliken Net Atomic Charges

     Atom                 Charge (a.u.)
  ----------------------------------------
      1 H                     0.256514
      2 O                    -0.381010
      3 C                    -0.215907
      4 H                     0.132211
      5 H                     0.104095
      6 H                     0.104097
  ----------------------------------------
  Sum of atomic charges =    -0.000000

                    Cartesian Multipole Moments
 -----------------------------------------------------------------
    Charge (ESU x 10^10)
                 0.0000
    Dipole Moment (Debye)
         X      -1.0725      Y      -1.7044      Z      -0.0000
       Tot       2.0138
    Quadrupole Moments (Debye-Ang)
        XX     -13.0466     XY      -2.4283     YY     -12.1435
        XZ       0.0000     YZ      -0.0000     ZZ     -13.7718

 Total job time:  4.93s(wall), 4.80s(cpu)
        *  Thank you very much for using Q-Chem.  Have a nice day.  *
