 Q-Chem 5.0, Q-Chem, Inc., Pleasanton, CA (2017)
 Q-Chem 5.0.2 for Intel X86 EM64T Linux

User input:
--------------------------------------------------------------
$rem
SCF_PRINT                     1
BASIS                         6-311++g**
SCF_SAVE_MATRICES             1
SCF_CONVERGENCE               5
SCF_FINAL_PRINT               1
METHOD                        hf
JOBTYPE                       sp
$end

$molecule
0 1
C    0.7806117    -0.6098875    -1.2075426
C    0.4784039    0.7510406    -1.207904
C    0.3276592    1.4318573    0.0
C    0.4784039    0.7510406    1.207904
C    0.7806117    -0.6098875    1.2075426
C    0.932151    -1.2899614    0.0
H    0.8966688    -1.1376051    -2.1441482
H    0.3573895    1.2782091    -2.1440546
H    0.0918593    2.4871407    0.0
H    0.3573895    1.2782091    2.1440546
H    0.8966688    -1.1376051    2.1441482
H    1.1690064    -2.3451668    0.0
$end

--------------------------------------------------------------

             Standard Nuclear Orientation (Angstroms)
    I     Atom           X                Y                Z
 ----------------------------------------------------------------
    1      C       0.0001720422    -0.6971533879     1.2075426000
    2      C      -0.0002820865     0.6969250322     1.2079040000
    3      C      -0.0009363434     1.3942305001     0.0000000000
    4      C      -0.0002820865     0.6969250322    -1.2079040000
    5      C       0.0001720422    -0.6971533879    -1.2075426000
    6      C      -0.0001106097    -1.3939062774    -0.0000000000
    7      H       0.0014491471    -1.2374805896     2.1441482000
    8      H       0.0033990847     1.2377924479     2.1440546000
    9      H       0.0001401979     2.4755368805     0.0000000000
   10      H       0.0033990847     1.2377924479    -2.1440546000
   11      H       0.0014491471    -1.2374805896    -2.1441482000
   12      H      -0.0022344108    -2.4753656646    -0.0000000000
 ----------------------------------------------------------------

    6    -230.7563106107      6.40e-06  Convergence criterion met
 Total energy in the final basis set =     -230.7563106107

             Orbital Energies (a.u.) and Symmetries
 --------------------------------------------------------------

 Alpha MOs, Restricted
 -- Occupied --
-11.238 -11.238 -11.238 -11.237 -11.237 -11.236  -1.152  -1.017
  1 A'    2 A'    1 A"    3 A'    2 A"    4 A'    5 A'    3 A"
 -1.017  -0.826  -0.826  -0.712  -0.646  -0.621  -0.590  -0.590
  6 A'    7 A'    4 A"    8 A'    9 A'    5 A"    6 A"   10 A'
 -0.502  -0.496  -0.496  -0.337  -0.337
 11 A'    7 A"   12 A'    8 A"   13 A'

 Beta MOs, Restricted
 -- Occupied --
-11.238 -11.238 -11.238 -11.237 -11.237 -11.236  -1.152  -1.017
  1 A'    2 A'    1 A"    3 A'    2 A"    4 A'    5 A'    3 A"
 -1.017  -0.826  -0.826  -0.712  -0.646  -0.621  -0.590  -0.590
  6 A'    7 A'    4 A"    8 A'    9 A'    5 A"    6 A"   10 A'
 -0.502  -0.496  -0.496  -0.337  -0.337
 11 A'    7 A"   12 A'    8 A"   13 A'

          Ground-State Mulliken Net Atomic Charges

     Atom                 Charge (a.u.)
  ----------------------------------------
      1 C                    -0.192622
      2 C                    -0.192980
      3 C                    -0.191807
      4 C                    -0.192980
      5 C                    -0.192622
      6 C                    -0.192624
      7 H                     0.192598
      8 H                     0.192585
      9 H                     0.192642
     10 H                     0.192585
     11 H                     0.192598
     12 H                     0.192627
  ----------------------------------------
  Sum of atomic charges =    -0.000000

                    Cartesian Multipole Moments
 -----------------------------------------------------------------
    Charge (ESU x 10^10)
                -0.0000
    Dipole Moment (Debye)
         X       0.0066      Y       0.0004      Z       0.0000
       Tot       0.0066
    Quadrupole Moments (Debye-Ang)
        XX     -41.3119     XY       0.0130     YY     -31.9210
        XZ      -0.0000     YZ      -0.0000     ZZ     -31.9113

 Total job time:  47.71s(wall), 47.16s(cpu)
        *  Thank you very much for using Q-Chem.  Have a nice day.  *
