 Q-Chem 5.0, Q-Chem, Inc., Pleasanton, CA (2017)
 Q-Chem 5.0.2 for Intel X86 EM64T Linux

User input:
--------------------------------------------------------------
$rem
SCF_PRINT                     1
BASIS                         6-311++g**
SCF_SAVE_MATRICES             1
SCF_CONVERGENCE               5
SCF_FINAL_PRINT               1
METHOD                        hf
JOBTYPE                       sp
$end

$molecule
0 1
C    -0.471925    -0.471925    -1.859111
C    0.471925    0.471925    -1.859111
H    -0.872422    -0.872422    -0.936125
H    0.872422    0.872422    -0.936125
H    -0.870464    -0.870464    -2.783308
H    0.870464    0.870464    -2.783308
C    -0.471925    0.471925    1.859111
C    0.471925    -0.471925    1.859111
H    -0.872422    0.872422    0.936125
H    0.872422    -0.872422    0.936125
H    -0.870464    0.870464    2.783308
H    0.870464    -0.870464    2.783308
$end

--------------------------------------------------------------

             Standard Nuclear Orientation (Angstroms)
    I     Atom           X                Y                Z
 ----------------------------------------------------------------
    1      C      -0.0000000000    -0.6674027354     1.8591110000
    2      C       0.0000000000     0.6674027354     1.8591110000
    3      H      -0.0000000000    -1.2337910245     0.9361250000
    4      H       0.0000000000     1.2337910245     0.9361250000
    5      H      -0.0000000000    -1.2310219944     2.7833080000
    6      H       0.0000000000     1.2310219944     2.7833080000
    7      C       0.6674027354     0.0000000000    -1.8591110000
    8      C      -0.6674027354     0.0000000000    -1.8591110000
    9      H       1.2337910245     0.0000000000    -0.9361250000
   10      H      -1.2337910245     0.0000000000    -0.9361250000
   11      H       1.2310219944     0.0000000000    -2.7833080000
   12      H      -1.2310219944     0.0000000000    -2.7833080000
 ----------------------------------------------------------------

    6    -156.1101887764      8.98e-06  Convergence criterion met
 Total energy in the final basis set =     -156.1101887764

             Orbital Energies (a.u.) and Symmetries
 --------------------------------------------------------------
 Warning : Irrep of orbital(   1) could not be determined
 Warning : Irrep of orbital(   2) could not be determined

 Alpha MOs, Restricted
 -- Occupied --
-11.234 -11.234 -11.232 -11.232  -1.039  -1.034  -0.795  -0.795
  0 xxx   0 xxx   1 E     1 E     1 A1    1 B2    2 E     2 E
 -0.659  -0.634  -0.591  -0.587  -0.510  -0.510  -0.378  -0.378
  2 A1    2 B2    3 A1    3 B2    3 E     3 E     4 E     4 E

 Beta MOs, Restricted
 -- Occupied --
-11.234 -11.234 -11.232 -11.232  -1.039  -1.034  -0.795  -0.795
  0 xxx   0 xxx   1 E     1 E     1 A1    1 B2    2 E     2 E
 -0.659  -0.634  -0.591  -0.587  -0.510  -0.510  -0.378  -0.378
  2 A1    2 B2    3 A1    3 B2    3 E     3 E     4 E     4 E

          Ground-State Mulliken Net Atomic Charges

     Atom                 Charge (a.u.)
  ----------------------------------------
      1 C                    -0.272689
      2 C                    -0.272689
      3 H                     0.123766
      4 H                     0.123766
      5 H                     0.148924
      6 H                     0.148924
      7 C                    -0.272689
      8 C                    -0.272689
      9 H                     0.123766
     10 H                     0.123766
     11 H                     0.148924
     12 H                     0.148924
  ----------------------------------------
  Sum of atomic charges =    -0.000000

                    Cartesian Multipole Moments
 -----------------------------------------------------------------
    Charge (ESU x 10^10)
                -0.0000
    Dipole Moment (Debye)
         X       0.0000      Y      -0.0000      Z       0.0000
       Tot       0.0000
    Quadrupole Moments (Debye-Ang)
        XX     -28.3008     XY       0.0000     YY     -28.3008
        XZ       0.0000     YZ      -0.0000     ZZ     -24.8022

 Total job time:  9.85s(wall), 9.13s(cpu)
        *  Thank you very much for using Q-Chem.  Have a nice day.  *
