 Q-Chem 5.0, Q-Chem, Inc., Pleasanton, CA (2017)
 Q-Chem 5.0.2 for Intel X86 EM64T Linux

User input:
--------------------------------------------------------------
$rem
SCF_PRINT                     1
BASIS                         6-311++g**
SCF_SAVE_MATRICES             1
SCF_CONVERGENCE               5
SCF_FINAL_PRINT               1
METHOD                        hf
JOBTYPE                       sp
$end

$molecule
0 1
Br    0.430759046    -0.000115215    -0.107945607
H    0.01775041    -1.3811e-05    1.259967353
$end

--------------------------------------------------------------

             Standard Nuclear Orientation (Angstroms)
    I     Atom           X                Y                Z
 ----------------------------------------------------------------
    1      Br     -0.0000000000     0.0000000000    -0.0396917328
    2      H      -0.0000000000     0.0000000000     1.3892106466
 ----------------------------------------------------------------

    7   -2572.9553377883      5.37e-06  Convergence criterion met
 Total energy in the final basis set =    -2572.9553377883

                    Orbital Energies (a.u.)
 --------------------------------------------------------------

 Alpha MOs
 -- Occupied --
******* -65.173 -58.533 -58.532 -58.532  -9.853  -7.467  -7.458
 -7.458  -3.206  -3.202  -3.202  -3.192  -3.192  -1.033  -0.582
 -0.434  -0.434

          Ground-State Mulliken Net Atomic Charges

     Atom                 Charge (a.u.)
  ----------------------------------------
      1 Br                   -0.113088
      2 H                     0.113088
  ----------------------------------------
  Sum of atomic charges =     0.000000

                    Cartesian Multipole Moments
 -----------------------------------------------------------------
    Charge (ESU x 10^10)
                -0.0000
    Dipole Moment (Debye)
         X      -0.0000      Y       0.0000      Z       1.1379
       Tot       1.1379
    Quadrupole Moments (Debye-Ang)
        XX     -20.1814     XY       0.0000     YY     -20.1814
        XZ      -0.0000     YZ       0.0000     ZZ     -15.6817

 Total job time:  8.61s(wall), 8.06s(cpu)
        *  Thank you very much for using Q-Chem.  Have a nice day.  *
