 Q-Chem 5.0, Q-Chem, Inc., Pleasanton, CA (2017)
 Q-Chem 5.0.2 for Intel X86 EM64T Linux

User input:
--------------------------------------------------------------
$rem
SCF_PRINT                     1
BASIS                         6-311++g**
SCF_SAVE_MATRICES             1
SCF_CONVERGENCE               5
SCF_FINAL_PRINT               1
METHOD                        hf
JOBTYPE                       sp
$end

$molecule
0 1
N    -0.0034118    3.5353926    0.0
C    0.0751963    2.370704    0.0
H    0.1476295    1.3052847    0.0
$end

--------------------------------------------------------------

             Standard Nuclear Orientation (Angstroms)
    I     Atom           X                Y                Z
 ----------------------------------------------------------------
    1      N      -0.0000000000    -0.0000395593     0.6599462018
    2      C      -0.0000000000     0.0000966036    -0.5073921167
    3      H       0.0000000000    -0.0003027065    -1.5752707118
 ----------------------------------------------------------------

    8     -92.8972809641      3.40e-06  Convergence criterion met
 Total energy in the final basis set =      -92.8972809641

                    Orbital Energies (a.u.)
 --------------------------------------------------------------

 Alpha MOs
 -- Occupied --
-15.608 -11.300  -1.235  -0.815  -0.584  -0.494  -0.494

          Ground-State Mulliken Net Atomic Charges

     Atom                 Charge (a.u.)
  ----------------------------------------
      1 N                    -0.228175
      2 C                     0.016279
      3 H                     0.211895
  ----------------------------------------
  Sum of atomic charges =    -0.000000

                    Cartesian Multipole Moments
 -----------------------------------------------------------------
    Charge (ESU x 10^10)
                -0.0000
    Dipole Moment (Debye)
         X       0.0000      Y      -0.0003      Z      -3.3165
       Tot       3.3165
    Quadrupole Moments (Debye-Ang)
        XX     -12.0413     XY      -0.0000     YY     -12.0413
        XZ       0.0000     YZ       0.0006     ZZ      -9.7013

 Total job time:  2.78s(wall), 2.38s(cpu)
        *  Thank you very much for using Q-Chem.  Have a nice day.  *
