 Q-Chem 5.0, Q-Chem, Inc., Pleasanton, CA (2017)
 Q-Chem 5.0.2 for Intel X86 EM64T Linux

User input:
--------------------------------------------------------------
$rem
SCF_PRINT                     1
BASIS                         6-311++g**
SCF_SAVE_MATRICES             1
SCF_CONVERGENCE               5
SCF_FINAL_PRINT               1
METHOD                        hf
JOBTYPE                       sp
$end

$molecule
0 1
C    -0.43601987    -1.503e-06    1.035407288
C    0.589762206    -1.3214e-05    1.978500062
C    1.922247312    -6.201e-06    1.571695588
C    2.228266034    -2.1972e-05    0.212569121
C    1.211087138    -6.405e-06    -0.74015358
H    -1.46924203    -1.95e-06    1.352224613
H    0.343101091    -8.425e-06    3.031629685
H    2.714694228    1.1502e-05    2.307032918
H    3.260261396    -2.6554e-05    -0.11155152
H    1.450707808    -1.0108e-05    -1.793985522
C    -0.120402824    2.2122e-05    -0.32357594
I    -1.658224104    0.000221203    -1.73801997
O    -3.949939923    -0.00014345    -3.815896908
C    -3.800618306    0.0037715    -5.025811592
C    -2.413746868    0.013928662    -5.628840849
C    -5.004091973    -0.001515653    -5.942215119
H    -1.881038094    0.891330448    -5.265472224
H    -1.870078249    -0.858483324    -5.269712302
H    -2.420677721    0.016520534    -6.71412314
H    -5.616269855    0.870128273    -5.717411468
H    -5.605371398    -0.881767955    -5.721583165
H    -4.740047227    0.002639189    -6.994882525
$end

--------------------------------------------------------------

             Standard Nuclear Orientation (Angstroms)
    I     Atom           X                Y                Z
 ----------------------------------------------------------------
    1      C       2.7954894286    -1.1133752677     0.0027948287
    2      C       4.1754261604    -0.9199135034     0.0028948001
    3      C       4.7073900589     0.3677246629    -0.0000718930
    4      C       3.8518534248     1.4672334439    -0.0031895631
    5      C       2.4699414396     1.2865328615    -0.0033182629
    6      H       2.3840631090    -2.1126971908     0.0051028548
    7      H       4.8322867708    -1.7792457855     0.0053188440
    8      H       5.7786617270     0.5128801080     0.0000450271
    9      H       4.2568591089     2.4702457107    -0.0055145540
   10      H       1.8080672194     2.1408726786    -0.0057309587
   11      C       1.9461589200    -0.0065430086    -0.0002989920
   12      I      -0.1230545597    -0.2962011129    -0.0002684663
   13      O      -3.1835128823    -0.7468990617    -0.0008270120
   14      C      -4.0233022618     0.1368190907     0.0005294665
   15      C      -3.6083808276     1.5911075421     0.0072482317
   16      C      -5.4954647548    -0.2108650866    -0.0045254686
   17      H      -2.9897674008     1.7740277933     0.8844636553
   18      H      -2.9853308730     1.7808349441    -0.8653707120
   19      H      -4.4511250222     2.2749747428     0.0077773685
   20      H      -5.7109551091    -0.8243446339     0.8685543254
   21      H      -5.7065038497    -0.8176335076    -0.8833622595
   22      H      -6.1409304867     0.6616122086    -0.0028176635
 ----------------------------------------------------------------

    8   -7338.9937213853      7.78e-06  Convergence criterion met
 Total energy in the final basis set =    -7338.9937213853

                    Orbital Energies (a.u.)
 --------------------------------------------------------------

 Alpha MOs
 -- Occupied --
*******-180.844-169.651-169.650-169.650 -37.898 -33.087 -33.082
-33.082 -24.271 -24.269 -24.269 -24.265 -24.265 -20.549 -11.344
-11.278 -11.245 -11.244 -11.243 -11.242 -11.241 -11.239 -11.237
 -7.216  -5.449  -5.438  -5.438  -2.373  -2.367  -2.367  -2.355
 -2.355  -1.392  -1.161  -1.044  -1.029  -1.024  -0.976  -0.862
 -0.836  -0.786  -0.749  -0.698  -0.650  -0.645  -0.634  -0.632
 -0.625  -0.596  -0.575  -0.570  -0.552  -0.540  -0.516  -0.505
 -0.486  -0.454  -0.414  -0.392  -0.357  -0.343  -0.312

          Ground-State Mulliken Net Atomic Charges

     Atom                 Charge (a.u.)
  ----------------------------------------
      1 C                    -0.517542
      2 C                    -0.104292
      3 C                    -0.428823
      4 C                    -0.193853
      5 C                    -0.544948
      6 H                     0.195837
      7 H                     0.205588
      8 H                     0.193418
      9 H                     0.209863
     10 H                     0.184685
     11 C                     0.687582
     12 I                     0.113711
     13 O                    -0.342755
     14 C                     0.614189
     15 C                    -0.554926
     16 C                    -0.714937
     17 H                     0.186684
     18 H                     0.186601
     19 H                     0.130081
     20 H                     0.178843
     21 H                     0.178858
     22 H                     0.136136
  ----------------------------------------
  Sum of atomic charges =    -0.000000

                    Cartesian Multipole Moments
 -----------------------------------------------------------------
    Charge (ESU x 10^10)
                -0.0000
    Dipole Moment (Debye)
         X      -1.6111      Y       2.5243      Z       0.0040
       Tot       2.9946
    Quadrupole Moments (Debye-Ang)
        XX     -59.6594     XY      -7.2406     YY     -84.9371
        XZ      -0.0057     YZ      -0.0230     ZZ     -93.7653

 Total job time:  838.51s(wall), 817.13s(cpu)
        *  Thank you very much for using Q-Chem.  Have a nice day.  *
