 Q-Chem 5.0, Q-Chem, Inc., Pleasanton, CA (2017)
 Q-Chem 5.0.2 for Intel X86 EM64T Linux

User input:
--------------------------------------------------------------
$rem
SCF_PRINT                     1
BASIS                         6-311++g**
SCF_SAVE_MATRICES             1
SCF_CONVERGENCE               5
SCF_FINAL_PRINT               1
METHOD                        hf
JOBTYPE                       sp
$end

$molecule
0 1
Br    -0.037667189    -3.295073415    1.773239996
C    0.090914423    -5.222622362    1.868971791
H    0.02222022    -5.618700696    0.863215296
H    1.044380918    -5.477357114    2.315266587
H    -0.72584639    -5.587601469    2.479578125
$end

--------------------------------------------------------------

             Standard Nuclear Orientation (Angstroms)
    I     Atom           X                Y                Z
 ----------------------------------------------------------------
    1      Br      0.4187995587     0.0000102520     0.0000027872
    2      C      -1.5154038302     0.0000387204     0.0000054582
    3      H      -1.8557587282     1.0269272301    -0.0529246788
    4      H      -1.8547449789    -0.5595591930    -0.8630501345
    5      H      -1.8550578669    -0.4679591786     0.9158445113
 ----------------------------------------------------------------

    7   -2611.9951342443      8.89e-06  Convergence criterion met
 Total energy in the final basis set =    -2611.9951342443

                    Orbital Energies (a.u.)
 --------------------------------------------------------------

 Alpha MOs
 -- Occupied --
******* -65.148 -58.509 -58.507 -58.507 -11.290  -9.828  -7.442
 -7.434  -7.434  -3.181  -3.177  -3.177  -3.168  -3.168  -1.064
 -0.899  -0.614  -0.614  -0.509  -0.402  -0.402

          Ground-State Mulliken Net Atomic Charges

     Atom                 Charge (a.u.)
  ----------------------------------------
      1 Br                   -0.122372
      2 C                    -0.325861
      3 H                     0.149397
      4 H                     0.149421
      5 H                     0.149416
  ----------------------------------------
  Sum of atomic charges =     0.000000

                    Cartesian Multipole Moments
 -----------------------------------------------------------------
    Charge (ESU x 10^10)
                 0.0000
    Dipole Moment (Debye)
         X      -2.2306      Y      -0.0003      Z      -0.0001
       Tot       2.2306
    Quadrupole Moments (Debye-Ang)
        XX     -22.1128     XY      -0.0009     YY     -26.1443
        XZ      -0.0003     YZ      -0.0000     ZZ     -26.1448

 Total job time:  24.49s(wall), 23.32s(cpu)
        *  Thank you very much for using Q-Chem.  Have a nice day.  *
