 Q-Chem 5.0, Q-Chem, Inc., Pleasanton, CA (2017)
 Q-Chem 5.0.2 for Intel X86 EM64T Linux

User input:
--------------------------------------------------------------
$rem
SCF_PRINT                     1
BASIS                         6-311++g**
SCF_SAVE_MATRICES             1
SCF_CONVERGENCE               5
SCF_FINAL_PRINT               1
METHOD                        hf
JOBTYPE                       sp
$end

$molecule
0 1
O    4.688782228    1.192694165    0.788621015
C    5.236612511    0.16210948    0.46433639
H    6.327564644    0.039937485    0.529623404
H    4.669249211    -0.702665676    0.088392932
$end

--------------------------------------------------------------

             Standard Nuclear Orientation (Angstroms)
    I     Atom           X                Y                Z
 ----------------------------------------------------------------
    1      O       0.6781541887    -0.0000514773     0.0000000000
    2      C      -0.5332017832     0.0001466458     0.0000000000
    3      H      -1.1128897480     0.9346662071     0.0000000000
    4      H      -1.1131330626    -0.9351342636     0.0000000000
 ----------------------------------------------------------------

    8    -113.9010178498      9.14e-06  Convergence criterion met
 Total energy in the final basis set =     -113.9010178498

             Orbital Energies (a.u.) and Symmetries
 --------------------------------------------------------------

 Alpha MOs, Restricted
 -- Occupied --
-20.580 -11.346  -1.407  -0.874  -0.696  -0.653  -0.536  -0.445
  1 A'    2 A'    3 A'    4 A'    5 A'    6 A'    1 A"    7 A'

 Beta MOs, Restricted
 -- Occupied --
-20.580 -11.346  -1.407  -0.874  -0.696  -0.653  -0.536  -0.445
  1 A'    2 A'    3 A'    4 A'    5 A'    6 A'    1 A"    7 A'

          Ground-State Mulliken Net Atomic Charges

     Atom                 Charge (a.u.)
  ----------------------------------------
      1 O                    -0.307505
      2 C                     0.118996
      3 H                     0.094349
      4 H                     0.094161
  ----------------------------------------
  Sum of atomic charges =     0.000000

                    Cartesian Multipole Moments
 -----------------------------------------------------------------
    Charge (ESU x 10^10)
                 0.0000
    Dipole Moment (Debye)
         X      -2.9777      Y       0.0012      Z       0.0000
       Tot       2.9777
    Quadrupole Moments (Debye-Ang)
        XX     -12.2139     XY      -0.0011     YY     -11.4756
        XZ      -0.0000     YZ      -0.0000     ZZ     -11.7432

 Total job time:  3.94s(wall), 3.54s(cpu)
        *  Thank you very much for using Q-Chem.  Have a nice day.  *
