 Q-Chem 5.0, Q-Chem, Inc., Pleasanton, CA (2017)
 Q-Chem 5.0.2 for Intel X86 EM64T Linux

User input:
--------------------------------------------------------------
$rem
SCF_PRINT                     1
BASIS                         6-311++g**
SCF_SAVE_MATRICES             1
SCF_CONVERGENCE               5
SCF_FINAL_PRINT               1
METHOD                        hf
JOBTYPE                       sp
$end

$molecule
0 1
C    -1.0478252    -1.4216736    0.0
C    -1.4545034    -0.8554459    1.2062048
C    -1.4545034    -0.8554459    -1.2062048
C    -2.266797    0.277161    1.2069539
C    -2.6714781    0.8450211    0.0
C    -2.266797    0.277161    -1.2069539
H    -1.1338534    -1.2920593    -2.142315
H    -2.5824943    0.7163066    -2.1437977
H    -3.3030422    1.72327    0.0
H    -2.5824943    0.7163066    2.1437977
H    -1.1338534    -1.2920593    2.142315
H    -0.4060253    -2.2919049    0.0
$end

--------------------------------------------------------------

             Standard Nuclear Orientation (Angstroms)
    I     Atom           X                Y                Z
 ----------------------------------------------------------------
    1      C       1.3940269237     0.0015171589     0.0000000000
    2      C       0.6968892285     0.0014966066    -1.2062048000
    3      C       0.6968892285     0.0014966066     1.2062048000
    4      C      -0.6968891962     0.0005039133    -1.2069539000
    5      C      -1.3941876634    -0.0020909915    -0.0000000000
    6      C      -0.6968891962     0.0005039133     1.2069539000
    7      H       1.2385671297    -0.0042248279     2.1423150000
    8      H      -1.2377344552     0.0007255313     2.1437977000
    9      H      -2.4759427078    -0.0014854104    -0.0000000000
   10      H      -1.2377344552     0.0007255313    -2.1437977000
   11      H       1.2385671297    -0.0042248279    -2.1423150000
   12      H       2.4752414099    -0.0120792385     0.0000000000
 ----------------------------------------------------------------

    6    -230.7563464620      6.45e-06  Convergence criterion met
 Total energy in the final basis set =     -230.7563464620

             Orbital Energies (a.u.) and Symmetries
 --------------------------------------------------------------

 Alpha MOs, Restricted
 -- Occupied --
-11.238 -11.238 -11.238 -11.236 -11.236 -11.236  -1.153  -1.017
  1 A'    1 A"    2 A'    2 A"    3 A'    4 A'    5 A'    6 A'
 -1.017  -0.826  -0.826  -0.712  -0.645  -0.621  -0.590  -0.590
  3 A"    4 A"    7 A'    8 A'    9 A'    5 A"   10 A'    6 A"
 -0.502  -0.496  -0.496  -0.337  -0.337
 11 A'   12 A'    7 A"   13 A'    8 A"

 Beta MOs, Restricted
 -- Occupied --
-11.238 -11.238 -11.238 -11.236 -11.236 -11.236  -1.153  -1.017
  1 A'    1 A"    2 A'    2 A"    3 A'    4 A'    5 A'    6 A'
 -1.017  -0.826  -0.826  -0.712  -0.645  -0.621  -0.590  -0.590
  3 A"    4 A"    7 A'    8 A'    9 A'    5 A"   10 A'    6 A"
 -0.502  -0.496  -0.496  -0.337  -0.337
 11 A'   12 A'    7 A"   13 A'    8 A"

          Ground-State Mulliken Net Atomic Charges

     Atom                 Charge (a.u.)
  ----------------------------------------
      1 C                    -0.194628
      2 C                    -0.189526
      3 C                    -0.189526
      4 C                    -0.195133
      5 C                    -0.191244
      6 C                    -0.195133
      7 H                     0.192499
      8 H                     0.192673
      9 H                     0.192615
     10 H                     0.192673
     11 H                     0.192499
     12 H                     0.192233
  ----------------------------------------
  Sum of atomic charges =    -0.000000

                    Cartesian Multipole Moments
 -----------------------------------------------------------------
    Charge (ESU x 10^10)
                -0.0000
    Dipole Moment (Debye)
         X       0.0013      Y      -0.0178      Z       0.0000
       Tot       0.0178
    Quadrupole Moments (Debye-Ang)
        XX     -31.9091     XY      -0.0468     YY     -41.3002
        XZ      -0.0000     YZ      -0.0000     ZZ     -31.9337

 Total job time:  45.58s(wall), 45.11s(cpu)
        *  Thank you very much for using Q-Chem.  Have a nice day.  *
