 Q-Chem 5.0, Q-Chem, Inc., Pleasanton, CA (2017)
 Q-Chem 5.0.2 for Intel X86 EM64T Linux

User input:
--------------------------------------------------------------
$rem
SCF_PRINT                     1
BASIS                         6-311++g**
SCF_SAVE_MATRICES             1
SCF_CONVERGENCE               5
SCF_FINAL_PRINT               1
METHOD                        hf
JOBTYPE                       sp
$end

$molecule
0 1
C    0.228087368    -0.006027308    -0.103512024
Cl    1.808884452    0.632806687    0.291464994
F    0.331959317    -1.250132504    -0.555496397
F    -0.551167778    -0.01333945    0.969446208
F    -0.350921815    0.733335757    -1.03965153
$end

--------------------------------------------------------------

             Standard Nuclear Orientation (Angstroms)
    I     Atom           X                Y                Z
 ----------------------------------------------------------------
    1      C       0.3446635701     0.0010197348     0.0001121380
    2      Cl     -1.4054891744     0.0003148484    -0.0000007192
    3      F       0.8074715291    -1.2403027996    -0.0882289779
    4      F       0.8088219431     0.6959109872    -1.0295550752
    5      F       0.8087436994     0.5431172755     1.1177106529
 ----------------------------------------------------------------

    8    -795.7871801488      3.40e-06  Convergence criterion met
 Total energy in the final basis set =     -795.7871801488

                    Orbital Energies (a.u.)
 --------------------------------------------------------------

 Alpha MOs
 -- Occupied --
******* -26.377 -26.377 -26.376 -11.592 -10.615  -8.084  -8.080
 -8.080  -1.779  -1.678  -1.677  -1.193  -0.983  -0.869  -0.869
 -0.831  -0.747  -0.746  -0.700  -0.700  -0.682  -0.606  -0.512
 -0.512

          Ground-State Mulliken Net Atomic Charges

     Atom                 Charge (a.u.)
  ----------------------------------------
      1 C                     0.162972
      2 Cl                    0.202290
      3 F                    -0.122924
      4 F                    -0.121216
      5 F                    -0.121122
  ----------------------------------------
  Sum of atomic charges =     0.000000

                    Cartesian Multipole Moments
 -----------------------------------------------------------------
    Charge (ESU x 10^10)
                 0.0000
    Dipole Moment (Debye)
         X      -0.7168      Y       0.0115      Z       0.0013
       Tot       0.7169
    Quadrupole Moments (Debye-Ang)
        XX     -32.0021     XY       0.0100     YY     -34.1147
        XZ       0.0012     YZ      -0.0005     ZZ     -34.1040

 Total job time:  30.35s(wall), 29.34s(cpu)
        *  Thank you very much for using Q-Chem.  Have a nice day.  *
