 Q-Chem 5.0, Q-Chem, Inc., Pleasanton, CA (2017)
 Q-Chem 5.0.2 for Intel X86 EM64T Linux

User input:
--------------------------------------------------------------
$rem
SCF_PRINT                     1
BASIS                         6-311++g**
SCF_SAVE_MATRICES             1
SCF_CONVERGENCE               5
SCF_FINAL_PRINT               1
METHOD                        hf
JOBTYPE                       sp
$end

$molecule
0 1
N    -3.9211729    -0.0009646    -1.5163659
C    -4.6136833    0.0169051    -0.333652
C    -3.9917387    0.0219348    0.8663338
C    -2.5361367    0.0074651    0.8766724
N    -1.9256484    -0.0110593    -0.3638948
C    -2.5395897    -0.0149474    -1.5962357
C    -4.7106131    0.0413373    2.1738637
O    -1.867473    0.0112093    1.9120833
O    -1.9416783    -0.0291878    -2.6573783
H    -4.4017172    -0.0036078    -2.4004924
H    -0.8838255    -0.0216168    -0.3784269
H    -5.690922    0.0269347    -0.4227183
H    -4.4439282    -0.8302573    2.7695655
H    -4.4267056    0.9186178    2.7530256
H    -5.7883971    0.050553    2.024728
$end

--------------------------------------------------------------

             Standard Nuclear Orientation (Angstroms)
    I     Atom           X                Y                Z
 ----------------------------------------------------------------
    1      N       1.1172284048    -1.2363541168     0.0004718528
    2      C      -0.2312477869    -1.4819433050     0.0002261404
    3      C      -1.1456617064    -0.4866275522     0.0000269224
    4      C      -0.6567306121     0.8845178730     0.0002490736
    5      N       0.7180158044     1.0332357035     0.0014292350
    6      C       1.6655531307     0.0343491169     0.0001126626
    7      C      -2.6204442139    -0.7142406259    -0.0003519781
    8      O      -1.4005186715     1.8673604078    -0.0006278244
    9      O       2.8673791400     0.2326844227    -0.0012284984
   10      H       1.7832991359    -1.9906476774    -0.0002240837
   11      H       1.0885665306     2.0070990058     0.0015890050
   12      H      -0.5165937860    -2.5245622305    -0.0000028492
   13      H      -3.0783374805    -0.2543028833     0.8739761334
   14      H      -3.0778060591    -0.2545061614    -0.8750618816
   15      H      -2.8495344217    -1.7779428454    -0.0003102815
 ----------------------------------------------------------------

    9    -451.6243890753      5.16e-06  Convergence criterion met
 Total energy in the final basis set =     -451.6243890753

                    Orbital Energies (a.u.)
 --------------------------------------------------------------

 Alpha MOs
 -- Occupied --
-20.546 -20.540 -15.642 -15.635 -11.422 -11.382 -11.332 -11.263
-11.238  -1.438  -1.395  -1.313  -1.249  -1.112  -0.974  -0.921
 -0.901  -0.777  -0.774  -0.713  -0.677  -0.671  -0.643  -0.617
 -0.593  -0.571  -0.560  -0.553  -0.515  -0.481  -0.448  -0.435
 -0.354

          Ground-State Mulliken Net Atomic Charges

     Atom                 Charge (a.u.)
  ----------------------------------------
      1 N                    -0.544360
      2 C                    -0.128102
      3 C                     0.424229
      4 C                     0.344061
      5 N                    -0.581594
      6 C                     0.549193
      7 C                    -0.733133
      8 O                    -0.429262
      9 O                    -0.443200
     10 H                     0.390003
     11 H                     0.424148
     12 H                     0.242127
     13 H                     0.179989
     14 H                     0.179970
     15 H                     0.125931
  ----------------------------------------
  Sum of atomic charges =     0.000000

                    Cartesian Multipole Moments
 -----------------------------------------------------------------
    Charge (ESU x 10^10)
                 0.0000
    Dipole Moment (Debye)
         X      -0.9669      Y      -4.8642      Z       0.0034
       Tot       4.9593
    Quadrupole Moments (Debye-Ang)
        XX     -65.6698     XY       3.9229     YY     -47.6404
        XZ       0.0068     YZ       0.0091     ZZ     -53.1344

 Total job time:  316.83s(wall), 315.18s(cpu)
        *  Thank you very much for using Q-Chem.  Have a nice day.  *
